n -t * -s 0  -x 7.3397488693426123 -y 10.030670873835064 -Z 0 -z 1  -v circle -c black
n -t * -s 1  -x 19.0403354722263 -y 4.0586293740471033 -Z 0 -z 1  -v circle -c black
n -t * -s 2  -x 23.857661487468363 -y 25.062235074612421 -Z 0 -z 1  -v circle -c black
n -t * -s 3  -x 5.7095693264666805 -y 25.984223664730891 -Z 0 -z 1  -v circle -c black
n -t * -s 4  -x 20.800545029714957 -y 9.4951433266956098 -Z 0 -z 1  -v circle -c black
n -t * -s 5  -x 18.938062157918729 -y 2.8716440651899413 -Z 0 -z 1  -v circle -c black
n -t * -s 6  -x 24.788602383243202 -y 22.749631974263878 -Z 0 -z 1  -v circle -c black
n -t * -s 7  -x 28.667231979159283 -y 20.19845153679999 -Z 0 -z 1  -v circle -c black
n -t * -s 8  -x 20.58322562397608 -y 10.456085358958731 -Z 0 -z 1  -v circle -c black
n -t * -s 9  -x 20.94215838748131 -y 21.541802017736156 -Z 0 -z 1  -v circle -c black
n -t * -s 10  -x 20.936536393564445 -y 15.032048507142836 -Z 0 -z 1  -v circle -c black
n -t * -s 11  -x 15 -y 15 -Z 0 -z 2  -v circle -c black
V -t * -v 1.0a5 -a 0
W -t * -x 30 -y 30
A -t * -n 1 -p 0 -o 0x7fffffff -c 30 -a 1
A -t * -h 1 -m 1073741823 -s 0
n -t 0 -s 11 -S COLOR -c black -o black -i black -I black
n -t 0 -s 10 -S COLOR -c black -o black -i black -I black
n -t 1 -s 11 -S COLOR -c black -o black -i black -I black
n -t 1 -s 10 -S COLOR -c black -o black -i black -I black
n -t 2 -s 11 -S COLOR -c black -o black -i black -I black
n -t 2 -s 10 -S COLOR -c black -o black -i black -I black
n -t 3 -s 11 -S COLOR -c black -o black -i black -I black
n -t 3 -s 10 -S COLOR -c black -o black -i black -I black
n -t 4 -s 11 -S COLOR -c black -o black -i black -I black
n -t 4 -s 10 -S COLOR -c black -o black -i black -I black
n -t 5 -s 11 -S COLOR -c black -o black -i black -I black
n -t 5 -s 10 -S COLOR -c black -o black -i black -I black
n -t 6 -s 11 -S COLOR -c black -o black -i black -I black
n -t 6 -s 10 -S COLOR -c black -o black -i black -I black
n -t 7 -s 11 -S COLOR -c black -o black -i black -I black
n -t 7 -s 10 -S COLOR -c black -o black -i black -I black
n -t 8 -s 11 -S COLOR -c black -o black -i black -I black
n -t 8 -s 10 -S COLOR -c black -o black -i black -I black
n -t 9 -s 11 -S COLOR -c black -o black -i black -I black
n -t 9 -s 10 -S COLOR -c black -o black -i black -I black
n -t 10 -s 11 -S COLOR -c black -o black -i black -I black
n -t 10 -s 10 -S COLOR -c black -o black -i black -I black
n -t 11 -s 11 -S COLOR -c black -o black -i black -I black
n -t 11 -s 10 -S COLOR -c black -o black -i black -I black
n -t 12 -s 11 -S COLOR -c black -o black -i black -I black
n -t 12 -s 10 -S COLOR -c black -o black -i black -I black
n -t 13 -s 11 -S COLOR -c black -o black -i black -I black
n -t 13 -s 10 -S COLOR -c black -o black -i black -I black
n -t 14 -s 11 -S COLOR -c black -o black -i black -I black
n -t 14 -s 10 -S COLOR -c black -o black -i black -I black
n -t 15 -s 11 -S COLOR -c black -o black -i black -I black
n -t 15 -s 10 -S COLOR -c black -o black -i black -I black
n -t 16 -s 11 -S COLOR -c red -o black -i red -I black
n -t 16 -s 10 -S COLOR -c black -o black -i black -I black
n -t 17 -s 11 -S COLOR -c black -o red -i black -I red
n -t 17 -s 10 -S COLOR -c black -o black -i black -I black
n -t 18 -s 11 -S COLOR -c red -o black -i red -I black
n -t 18 -s 10 -S COLOR -c black -o black -i black -I black
n -t 19 -s 11 -S COLOR -c black -o red -i black -I red
n -t 19 -s 10 -S COLOR -c black -o black -i black -I black
n -t 20 -s 11 -S COLOR -c black -o black -i black -I black
n -t 20 -s 10 -S COLOR -c black -o black -i black -I black
n -t 21 -s 11 -S COLOR -c black -o black -i black -I black
n -t 21 -s 10 -S COLOR -c black -o black -i black -I black
n -t 22 -s 11 -S COLOR -c black -o black -i black -I black
n -t 22 -s 10 -S COLOR -c black -o black -i black -I black
n -t 23 -s 11 -S COLOR -c red -o black -i red -I black
n -t 23 -s 10 -S COLOR -c black -o black -i black -I black
n -t 24 -s 11 -S COLOR -c black -o red -i black -I red
n -t 24 -s 10 -S COLOR -c black -o black -i black -I black
n -t 25 -s 11 -S COLOR -c black -o black -i black -I black
n -t 25 -s 10 -S COLOR -c black -o black -i black -I black
n -t 26 -s 11 -S COLOR -c black -o black -i black -I black
n -t 26 -s 10 -S COLOR -c black -o black -i black -I black
n -t 27 -s 11 -S COLOR -c black -o black -i black -I black
n -t 27 -s 10 -S COLOR -c black -o black -i black -I black
n -t 28 -s 11 -S COLOR -c black -o black -i black -I black
n -t 28 -s 10 -S COLOR -c black -o black -i black -I black
n -t 29 -s 11 -S COLOR -c red -o black -i red -I black
n -t 29 -s 10 -S COLOR -c black -o black -i black -I black
n -t 30 -s 11 -S COLOR -c black -o red -i black -I red
n -t 30 -s 10 -S COLOR -c black -o black -i black -I black
n -t 31 -s 11 -S COLOR -c black -o black -i black -I black
n -t 31 -s 10 -S COLOR -c black -o black -i black -I black
n -t 32 -s 11 -S COLOR -c black -o black -i black -I black
n -t 32 -s 10 -S COLOR -c black -o black -i black -I black
n -t 33 -s 11 -S COLOR -c black -o black -i black -I black
n -t 33 -s 10 -S COLOR -c black -o black -i black -I black
n -t 34 -s 11 -S COLOR -c black -o black -i black -I black
n -t 34 -s 10 -S COLOR -c black -o black -i black -I black
n -t 35 -s 11 -S COLOR -c black -o black -i black -I black
n -t 35 -s 10 -S COLOR -c black -o black -i black -I black
n -t 36 -s 11 -S COLOR -c black -o black -i black -I black
n -t 36 -s 10 -S COLOR -c black -o black -i black -I black
n -t 37 -s 11 -S COLOR -c black -o black -i black -I black
n -t 37 -s 10 -S COLOR -c black -o black -i black -I black
n -t 38 -s 11 -S COLOR -c black -o black -i black -I black
n -t 38 -s 10 -S COLOR -c black -o black -i black -I black
n -t 39 -s 11 -S COLOR -c black -o black -i black -I black
n -t 39 -s 10 -S COLOR -c black -o black -i black -I black
n -t 40 -s 11 -S COLOR -c black -o black -i black -I black
n -t 40 -s 10 -S COLOR -c black -o black -i black -I black
n -t 41 -s 11 -S COLOR -c black -o black -i black -I black
n -t 41 -s 10 -S COLOR -c black -o black -i black -I black
n -t 42 -s 11 -S COLOR -c black -o black -i black -I black
n -t 42 -s 10 -S COLOR -c black -o black -i black -I black
n -t 43 -s 11 -S COLOR -c black -o black -i black -I black
n -t 43 -s 10 -S COLOR -c black -o black -i black -I black
n -t 44 -s 11 -S COLOR -c black -o black -i black -I black
n -t 44 -s 10 -S COLOR -c black -o black -i black -I black
n -t 45 -s 11 -S COLOR -c black -o black -i black -I black
n -t 45 -s 10 -S COLOR -c black -o black -i black -I black
n -t 46 -s 11 -S COLOR -c black -o black -i black -I black
n -t 46 -s 10 -S COLOR -c black -o black -i black -I black
n -t 47 -s 11 -S COLOR -c black -o black -i black -I black
n -t 47 -s 10 -S COLOR -c black -o black -i black -I black
n -t 48 -s 11 -S COLOR -c black -o black -i black -I black
n -t 48 -s 10 -S COLOR -c black -o black -i black -I black
n -t 49 -s 11 -S COLOR -c black -o black -i black -I black
n -t 49 -s 10 -S COLOR -c black -o black -i black -I black
n -t 50 -s 11 -S COLOR -c black -o black -i black -I black
n -t 50 -s 10 -S COLOR -c black -o black -i black -I black
n -t 51 -s 11 -S COLOR -c black -o black -i black -I black
n -t 51 -s 10 -S COLOR -c black -o black -i black -I black
n -t 52 -s 11 -S COLOR -c black -o black -i black -I black
n -t 52 -s 10 -S COLOR -c black -o black -i black -I black
n -t 53 -s 11 -S COLOR -c black -o black -i black -I black
n -t 53 -s 10 -S COLOR -c black -o black -i black -I black
n -t 54 -s 11 -S COLOR -c black -o black -i black -I black
n -t 54 -s 10 -S COLOR -c black -o black -i black -I black
n -t 55 -s 11 -S COLOR -c black -o black -i black -I black
n -t 55 -s 10 -S COLOR -c black -o black -i black -I black
n -t 56 -s 11 -S COLOR -c black -o black -i black -I black
n -t 56 -s 10 -S COLOR -c black -o black -i black -I black
n -t 57 -s 11 -S COLOR -c black -o black -i black -I black
n -t 57 -s 10 -S COLOR -c black -o black -i black -I black
n -t 58 -s 11 -S COLOR -c black -o black -i black -I black
n -t 58 -s 10 -S COLOR -c black -o black -i black -I black
n -t 59 -s 11 -S COLOR -c black -o black -i black -I black
n -t 59 -s 10 -S COLOR -c black -o black -i black -I black
n -t 60 -s 11 -S COLOR -c black -o black -i black -I black
n -t 60 -s 10 -S COLOR -c black -o black -i black -I black
n -t 61 -s 11 -S COLOR -c black -o black -i black -I black
n -t 61 -s 10 -S COLOR -c black -o black -i black -I black
n -t 62 -s 11 -S COLOR -c black -o black -i black -I black
n -t 62 -s 10 -S COLOR -c black -o black -i black -I black
n -t 63 -s 11 -S COLOR -c black -o black -i black -I black
n -t 63 -s 10 -S COLOR -c black -o black -i black -I black
n -t 64 -s 11 -S COLOR -c black -o black -i black -I black
n -t 64 -s 10 -S COLOR -c black -o black -i black -I black
n -t 65 -s 11 -S COLOR -c black -o black -i black -I black
n -t 65 -s 10 -S COLOR -c black -o black -i black -I black
n -t 66 -s 11 -S COLOR -c black -o black -i black -I black
n -t 66 -s 10 -S COLOR -c black -o black -i black -I black
n -t 67 -s 11 -S COLOR -c black -o black -i black -I black
n -t 67 -s 10 -S COLOR -c black -o black -i black -I black
n -t 68 -s 11 -S COLOR -c black -o black -i black -I black
n -t 68 -s 10 -S COLOR -c black -o black -i black -I black
n -t 69 -s 11 -S COLOR -c black -o black -i black -I black
n -t 69 -s 10 -S COLOR -c black -o black -i black -I black
n -t 70 -s 11 -S COLOR -c black -o black -i black -I black
n -t 70 -s 10 -S COLOR -c black -o black -i black -I black
n -t 71 -s 11 -S COLOR -c black -o black -i black -I black
n -t 71 -s 10 -S COLOR -c black -o black -i black -I black
n -t 72 -s 11 -S COLOR -c black -o black -i black -I black
n -t 72 -s 10 -S COLOR -c black -o black -i black -I black
n -t 73 -s 11 -S COLOR -c black -o black -i black -I black
n -t 73 -s 10 -S COLOR -c black -o black -i black -I black
n -t 74 -s 11 -S COLOR -c red -o black -i red -I black
n -t 74 -s 10 -S COLOR -c black -o black -i black -I black
n -t 75 -s 11 -S COLOR -c black -o red -i black -I red
n -t 75 -s 10 -S COLOR -c black -o black -i black -I black
n -t 76 -s 11 -S COLOR -c black -o black -i black -I black
n -t 76 -s 10 -S COLOR -c black -o black -i black -I black
n -t 77 -s 11 -S COLOR -c black -o black -i black -I black
n -t 77 -s 10 -S COLOR -c black -o black -i black -I black
n -t 78 -s 11 -S COLOR -c black -o black -i black -I black
n -t 78 -s 10 -S COLOR -c black -o black -i black -I black
n -t 79 -s 11 -S COLOR -c black -o black -i black -I black
n -t 79 -s 10 -S COLOR -c black -o black -i black -I black
n -t 80 -s 11 -S COLOR -c black -o black -i black -I black
n -t 80 -s 10 -S COLOR -c black -o black -i black -I black
n -t 81 -s 11 -S COLOR -c black -o black -i black -I black
n -t 81 -s 10 -S COLOR -c black -o black -i black -I black
n -t 82 -s 11 -S COLOR -c black -o black -i black -I black
n -t 82 -s 10 -S COLOR -c black -o black -i black -I black
n -t 83 -s 11 -S COLOR -c black -o black -i black -I black
n -t 83 -s 10 -S COLOR -c black -o black -i black -I black
n -t 84 -s 11 -S COLOR -c black -o black -i black -I black
n -t 84 -s 10 -S COLOR -c black -o black -i black -I black
n -t 85 -s 11 -S COLOR -c black -o black -i black -I black
n -t 85 -s 10 -S COLOR -c black -o black -i black -I black
n -t 86 -s 11 -S COLOR -c black -o black -i black -I black
n -t 86 -s 10 -S COLOR -c black -o black -i black -I black
n -t 87 -s 11 -S COLOR -c black -o black -i black -I black
n -t 87 -s 10 -S COLOR -c black -o black -i black -I black
n -t 88 -s 11 -S COLOR -c black -o black -i black -I black
n -t 88 -s 10 -S COLOR -c black -o black -i black -I black
n -t 89 -s 11 -S COLOR -c black -o black -i black -I black
n -t 89 -s 10 -S COLOR -c black -o black -i black -I black
n -t 90 -s 11 -S COLOR -c black -o black -i black -I black
n -t 90 -s 10 -S COLOR -c black -o black -i black -I black
n -t 91 -s 11 -S COLOR -c black -o black -i black -I black
n -t 91 -s 10 -S COLOR -c black -o black -i black -I black
n -t 92 -s 11 -S COLOR -c black -o black -i black -I black
n -t 92 -s 10 -S COLOR -c black -o black -i black -I black
n -t 93 -s 11 -S COLOR -c black -o black -i black -I black
n -t 93 -s 10 -S COLOR -c black -o black -i black -I black
n -t 94 -s 11 -S COLOR -c black -o black -i black -I black
n -t 94 -s 10 -S COLOR -c black -o black -i black -I black
n -t 95 -s 11 -S COLOR -c black -o black -i black -I black
n -t 95 -s 10 -S COLOR -c black -o black -i black -I black
n -t 96 -s 11 -S COLOR -c black -o black -i black -I black
n -t 96 -s 10 -S COLOR -c black -o black -i black -I black
n -t 97 -s 11 -S COLOR -c black -o black -i black -I black
n -t 97 -s 10 -S COLOR -c black -o black -i black -I black
n -t 98 -s 11 -S COLOR -c black -o black -i black -I black
n -t 98 -s 10 -S COLOR -c black -o black -i black -I black
n -t 99 -s 11 -S COLOR -c black -o black -i black -I black
n -t 99 -s 10 -S COLOR -c black -o black -i black -I black
