n -t * -s 0  -x 8.8236331608256489 -y 17.359967230521125 -Z 0 -z 1  -v circle -c black
n -t * -s 1  -x 14.397210383041394 -y 29.300770866359013 -Z 0 -z 1  -v circle -c black
n -t * -s 2  -x 3.2717337753957758 -y 13.55516527013628 -Z 0 -z 1  -v circle -c black
n -t * -s 3  -x 6.2749025860218808 -y 24.484432518707791 -Z 0 -z 1  -v circle -c black
n -t * -s 4  -x 3.0830145408785969 -y 17.099870237102671 -Z 0 -z 1  -v circle -c black
n -t * -s 5  -x 17.190140302847205 -y 29.058755985022877 -Z 0 -z 1  -v circle -c black
n -t * -s 6  -x 10.29033003854115 -y 19.046507318991473 -Z 0 -z 1  -v circle -c black
n -t * -s 7  -x 5.6382475726484547 -y 16.969803244327103 -Z 0 -z 1  -v circle -c black
n -t * -s 8  -x 28.147201229886711 -y 12.164056912140948 -Z 0 -z 1  -v circle -c black
n -t * -s 9  -x 15.773143361216942 -y 19.366173981393768 -Z 0 -z 1  -v circle -c black
n -t * -s 10  -x 15 -y 15 -Z 0 -z 2  -v circle -c black
V -t * -v 1.0a5 -a 0
W -t * -x 30 -y 30
A -t * -n 1 -p 0 -o 0x7fffffff -c 30 -a 1
A -t * -h 1 -m 1073741823 -s 0
n -t 0 -s 10 -S COLOR -c black -o black -i black -I black
n -t 0 -s 0 -S COLOR -c black -o black -i black -I black
n -t 0 -s 1 -S COLOR -c black -o black -i black -I black
n -t 0 -s 2 -S COLOR -c black -o black -i black -I black
n -t 0 -s 3 -S COLOR -c black -o black -i black -I black
n -t 0 -s 4 -S COLOR -c black -o black -i black -I black
n -t 0 -s 5 -S COLOR -c black -o black -i black -I black
n -t 0 -s 6 -S COLOR -c black -o black -i black -I black
n -t 0 -s 7 -S COLOR -c black -o black -i black -I black
n -t 0 -s 8 -S COLOR -c black -o black -i black -I black
n -t 0 -s 9 -S COLOR -c black -o black -i black -I black
n -t 1 -s 10 -S COLOR -c black -o black -i black -I black
n -t 1 -s 0 -S COLOR -c black -o black -i black -I black
n -t 1 -s 1 -S COLOR -c black -o black -i black -I black
n -t 1 -s 2 -S COLOR -c black -o black -i black -I black
n -t 1 -s 3 -S COLOR -c black -o black -i black -I black
n -t 1 -s 4 -S COLOR -c black -o black -i black -I black
n -t 1 -s 5 -S COLOR -c black -o black -i black -I black
n -t 1 -s 6 -S COLOR -c black -o black -i black -I black
n -t 1 -s 7 -S COLOR -c black -o black -i black -I black
n -t 1 -s 8 -S COLOR -c black -o black -i black -I black
n -t 1 -s 9 -S COLOR -c black -o black -i black -I black
n -t 2 -s 10 -S COLOR -c black -o black -i black -I black
n -t 2 -s 0 -S COLOR -c black -o black -i black -I black
n -t 2 -s 1 -S COLOR -c black -o black -i black -I black
n -t 2 -s 2 -S COLOR -c black -o black -i black -I black
n -t 2 -s 3 -S COLOR -c black -o black -i black -I black
n -t 2 -s 4 -S COLOR -c black -o black -i black -I black
n -t 2 -s 5 -S COLOR -c black -o black -i black -I black
n -t 2 -s 6 -S COLOR -c black -o black -i black -I black
n -t 2 -s 7 -S COLOR -c black -o black -i black -I black
n -t 2 -s 8 -S COLOR -c black -o black -i black -I black
n -t 2 -s 9 -S COLOR -c black -o black -i black -I black
n -t 3 -s 10 -S COLOR -c black -o black -i black -I black
n -t 3 -s 0 -S COLOR -c black -o black -i black -I black
n -t 3 -s 1 -S COLOR -c black -o black -i black -I black
n -t 3 -s 2 -S COLOR -c black -o black -i black -I black
n -t 3 -s 3 -S COLOR -c black -o black -i black -I black
n -t 3 -s 4 -S COLOR -c black -o black -i black -I black
n -t 3 -s 5 -S COLOR -c black -o black -i black -I black
n -t 3 -s 6 -S COLOR -c black -o black -i black -I black
n -t 3 -s 7 -S COLOR -c black -o black -i black -I black
n -t 3 -s 8 -S COLOR -c black -o black -i black -I black
n -t 3 -s 9 -S COLOR -c black -o black -i black -I black
n -t 4 -s 10 -S COLOR -c black -o black -i black -I black
n -t 4 -s 0 -S COLOR -c black -o black -i black -I black
n -t 4 -s 1 -S COLOR -c black -o black -i black -I black
n -t 4 -s 2 -S COLOR -c black -o black -i black -I black
n -t 4 -s 3 -S COLOR -c black -o black -i black -I black
n -t 4 -s 4 -S COLOR -c black -o black -i black -I black
n -t 4 -s 5 -S COLOR -c black -o black -i black -I black
n -t 4 -s 6 -S COLOR -c black -o black -i black -I black
n -t 4 -s 7 -S COLOR -c black -o black -i black -I black
n -t 4 -s 8 -S COLOR -c black -o black -i black -I black
n -t 4 -s 9 -S COLOR -c black -o black -i black -I black
n -t 5 -s 10 -S COLOR -c black -o black -i black -I black
n -t 5 -s 0 -S COLOR -c black -o black -i black -I black
n -t 5 -s 1 -S COLOR -c black -o black -i black -I black
n -t 5 -s 2 -S COLOR -c black -o black -i black -I black
n -t 5 -s 3 -S COLOR -c black -o black -i black -I black
n -t 5 -s 4 -S COLOR -c black -o black -i black -I black
n -t 5 -s 5 -S COLOR -c black -o black -i black -I black
n -t 5 -s 6 -S COLOR -c black -o black -i black -I black
n -t 5 -s 7 -S COLOR -c black -o black -i black -I black
n -t 5 -s 8 -S COLOR -c black -o black -i black -I black
n -t 5 -s 9 -S COLOR -c black -o black -i black -I black
n -t 6 -s 10 -S COLOR -c black -o black -i black -I black
n -t 6 -s 0 -S COLOR -c black -o black -i black -I black
n -t 6 -s 1 -S COLOR -c black -o black -i black -I black
n -t 6 -s 2 -S COLOR -c black -o black -i black -I black
n -t 6 -s 3 -S COLOR -c black -o black -i black -I black
n -t 6 -s 4 -S COLOR -c black -o black -i black -I black
n -t 6 -s 5 -S COLOR -c black -o black -i black -I black
n -t 6 -s 6 -S COLOR -c black -o black -i black -I black
n -t 6 -s 7 -S COLOR -c black -o black -i black -I black
n -t 6 -s 8 -S COLOR -c black -o black -i black -I black
n -t 6 -s 9 -S COLOR -c black -o black -i black -I black
n -t 7 -s 10 -S COLOR -c black -o black -i black -I black
n -t 7 -s 0 -S COLOR -c black -o black -i black -I black
n -t 7 -s 1 -S COLOR -c black -o black -i black -I black
n -t 7 -s 2 -S COLOR -c black -o black -i black -I black
n -t 7 -s 3 -S COLOR -c black -o black -i black -I black
n -t 7 -s 4 -S COLOR -c black -o black -i black -I black
n -t 7 -s 5 -S COLOR -c black -o black -i black -I black
n -t 7 -s 6 -S COLOR -c black -o black -i black -I black
n -t 7 -s 7 -S COLOR -c black -o black -i black -I black
n -t 7 -s 8 -S COLOR -c black -o black -i black -I black
n -t 7 -s 9 -S COLOR -c black -o black -i black -I black
n -t 8 -s 10 -S COLOR -c black -o black -i black -I black
n -t 8 -s 0 -S COLOR -c black -o black -i black -I black
n -t 8 -s 1 -S COLOR -c black -o black -i black -I black
n -t 8 -s 2 -S COLOR -c black -o black -i black -I black
n -t 8 -s 3 -S COLOR -c black -o black -i black -I black
n -t 8 -s 4 -S COLOR -c black -o black -i black -I black
n -t 8 -s 5 -S COLOR -c black -o black -i black -I black
n -t 8 -s 6 -S COLOR -c black -o black -i black -I black
n -t 8 -s 7 -S COLOR -c black -o black -i black -I black
n -t 8 -s 8 -S COLOR -c black -o black -i black -I black
n -t 8 -s 9 -S COLOR -c black -o black -i black -I black
n -t 9 -s 10 -S COLOR -c black -o black -i black -I black
n -t 9 -s 0 -S COLOR -c black -o black -i black -I black
n -t 9 -s 1 -S COLOR -c black -o black -i black -I black
n -t 9 -s 2 -S COLOR -c black -o black -i black -I black
n -t 9 -s 3 -S COLOR -c black -o black -i black -I black
n -t 9 -s 4 -S COLOR -c black -o black -i black -I black
n -t 9 -s 5 -S COLOR -c black -o black -i black -I black
n -t 9 -s 6 -S COLOR -c black -o black -i black -I black
n -t 9 -s 7 -S COLOR -c black -o black -i black -I black
n -t 9 -s 8 -S COLOR -c black -o black -i black -I black
n -t 9 -s 9 -S COLOR -c black -o black -i black -I black
n -t 10 -s 10 -S COLOR -c black -o black -i black -I black
n -t 10 -s 0 -S COLOR -c black -o black -i black -I black
n -t 10 -s 1 -S COLOR -c black -o black -i black -I black
n -t 10 -s 2 -S COLOR -c black -o black -i black -I black
n -t 10 -s 3 -S COLOR -c black -o black -i black -I black
n -t 10 -s 4 -S COLOR -c black -o black -i black -I black
n -t 10 -s 5 -S COLOR -c black -o black -i black -I black
n -t 10 -s 6 -S COLOR -c black -o black -i black -I black
n -t 10 -s 7 -S COLOR -c black -o black -i black -I black
n -t 10 -s 8 -S COLOR -c black -o black -i black -I black
n -t 10 -s 9 -S COLOR -c black -o black -i black -I black
n -t 11 -s 10 -S COLOR -c red -o black -i red -I black
n -t 11 -s 0 -S COLOR -c black -o black -i black -I black
n -t 11 -s 1 -S COLOR -c black -o black -i black -I black
n -t 11 -s 2 -S COLOR -c black -o black -i black -I black
n -t 11 -s 3 -S COLOR -c black -o black -i black -I black
n -t 11 -s 4 -S COLOR -c black -o black -i black -I black
n -t 11 -s 5 -S COLOR -c black -o black -i black -I black
n -t 11 -s 6 -S COLOR -c black -o black -i black -I black
n -t 11 -s 7 -S COLOR -c black -o black -i black -I black
n -t 11 -s 8 -S COLOR -c black -o black -i black -I black
n -t 11 -s 9 -S COLOR -c black -o black -i black -I black
n -t 12 -s 10 -S COLOR -c black -o red -i black -I red
n -t 12 -s 0 -S COLOR -c black -o black -i black -I black
n -t 12 -s 1 -S COLOR -c black -o black -i black -I black
n -t 12 -s 2 -S COLOR -c black -o black -i black -I black
n -t 12 -s 3 -S COLOR -c black -o black -i black -I black
n -t 12 -s 4 -S COLOR -c black -o black -i black -I black
n -t 12 -s 5 -S COLOR -c black -o black -i black -I black
n -t 12 -s 6 -S COLOR -c black -o black -i black -I black
n -t 12 -s 7 -S COLOR -c black -o black -i black -I black
n -t 12 -s 8 -S COLOR -c black -o black -i black -I black
n -t 12 -s 9 -S COLOR -c black -o black -i black -I black
n -t 13 -s 10 -S COLOR -c black -o black -i black -I black
n -t 13 -s 0 -S COLOR -c black -o black -i black -I black
n -t 13 -s 1 -S COLOR -c black -o black -i black -I black
n -t 13 -s 2 -S COLOR -c black -o black -i black -I black
n -t 13 -s 3 -S COLOR -c black -o black -i black -I black
n -t 13 -s 4 -S COLOR -c black -o black -i black -I black
n -t 13 -s 5 -S COLOR -c black -o black -i black -I black
n -t 13 -s 6 -S COLOR -c black -o black -i black -I black
n -t 13 -s 7 -S COLOR -c black -o black -i black -I black
n -t 13 -s 8 -S COLOR -c black -o black -i black -I black
n -t 13 -s 9 -S COLOR -c black -o black -i black -I black
n -t 14 -s 10 -S COLOR -c black -o black -i black -I black
n -t 14 -s 0 -S COLOR -c black -o black -i black -I black
n -t 14 -s 1 -S COLOR -c black -o black -i black -I black
n -t 14 -s 2 -S COLOR -c black -o black -i black -I black
n -t 14 -s 3 -S COLOR -c black -o black -i black -I black
n -t 14 -s 4 -S COLOR -c black -o black -i black -I black
n -t 14 -s 5 -S COLOR -c black -o black -i black -I black
n -t 14 -s 6 -S COLOR -c black -o black -i black -I black
n -t 14 -s 7 -S COLOR -c black -o black -i black -I black
n -t 14 -s 8 -S COLOR -c black -o black -i black -I black
n -t 14 -s 9 -S COLOR -c black -o black -i black -I black
n -t 15 -s 10 -S COLOR -c black -o black -i black -I black
n -t 15 -s 0 -S COLOR -c black -o black -i black -I black
n -t 15 -s 1 -S COLOR -c black -o black -i black -I black
n -t 15 -s 2 -S COLOR -c black -o black -i black -I black
n -t 15 -s 3 -S COLOR -c black -o black -i black -I black
n -t 15 -s 4 -S COLOR -c black -o black -i black -I black
n -t 15 -s 5 -S COLOR -c black -o black -i black -I black
n -t 15 -s 6 -S COLOR -c black -o black -i black -I black
n -t 15 -s 7 -S COLOR -c black -o black -i black -I black
n -t 15 -s 8 -S COLOR -c black -o black -i black -I black
n -t 15 -s 9 -S COLOR -c black -o black -i black -I black
n -t 16 -s 10 -S COLOR -c black -o black -i black -I black
n -t 16 -s 0 -S COLOR -c black -o black -i black -I black
n -t 16 -s 1 -S COLOR -c black -o black -i black -I black
n -t 16 -s 2 -S COLOR -c black -o black -i black -I black
n -t 16 -s 3 -S COLOR -c black -o black -i black -I black
n -t 16 -s 4 -S COLOR -c black -o black -i black -I black
n -t 16 -s 5 -S COLOR -c black -o black -i black -I black
n -t 16 -s 6 -S COLOR -c black -o black -i black -I black
n -t 16 -s 7 -S COLOR -c black -o black -i black -I black
n -t 16 -s 8 -S COLOR -c black -o black -i black -I black
n -t 16 -s 9 -S COLOR -c black -o black -i black -I black
n -t 17 -s 10 -S COLOR -c black -o black -i black -I black
n -t 17 -s 0 -S COLOR -c black -o black -i black -I black
n -t 17 -s 1 -S COLOR -c black -o black -i black -I black
n -t 17 -s 2 -S COLOR -c black -o black -i black -I black
n -t 17 -s 3 -S COLOR -c black -o black -i black -I black
n -t 17 -s 4 -S COLOR -c black -o black -i black -I black
n -t 17 -s 5 -S COLOR -c black -o black -i black -I black
n -t 17 -s 6 -S COLOR -c black -o black -i black -I black
n -t 17 -s 7 -S COLOR -c black -o black -i black -I black
n -t 17 -s 8 -S COLOR -c black -o black -i black -I black
n -t 17 -s 9 -S COLOR -c black -o black -i black -I black
n -t 18 -s 10 -S COLOR -c black -o black -i black -I black
n -t 18 -s 0 -S COLOR -c black -o black -i black -I black
n -t 18 -s 1 -S COLOR -c black -o black -i black -I black
n -t 18 -s 2 -S COLOR -c black -o black -i black -I black
n -t 18 -s 3 -S COLOR -c black -o black -i black -I black
n -t 18 -s 4 -S COLOR -c black -o black -i black -I black
n -t 18 -s 5 -S COLOR -c black -o black -i black -I black
n -t 18 -s 6 -S COLOR -c black -o black -i black -I black
n -t 18 -s 7 -S COLOR -c black -o black -i black -I black
n -t 18 -s 8 -S COLOR -c black -o black -i black -I black
n -t 18 -s 9 -S COLOR -c black -o black -i black -I black
n -t 19 -s 10 -S COLOR -c black -o black -i black -I black
n -t 19 -s 0 -S COLOR -c black -o black -i black -I black
n -t 19 -s 1 -S COLOR -c black -o black -i black -I black
n -t 19 -s 2 -S COLOR -c black -o black -i black -I black
n -t 19 -s 3 -S COLOR -c black -o black -i black -I black
n -t 19 -s 4 -S COLOR -c black -o black -i black -I black
n -t 19 -s 5 -S COLOR -c black -o black -i black -I black
n -t 19 -s 6 -S COLOR -c black -o black -i black -I black
n -t 19 -s 7 -S COLOR -c black -o black -i black -I black
n -t 19 -s 8 -S COLOR -c black -o black -i black -I black
n -t 19 -s 9 -S COLOR -c black -o black -i black -I black
n -t 20 -s 10 -S COLOR -c black -o black -i black -I black
n -t 20 -s 0 -S COLOR -c black -o black -i black -I black
n -t 20 -s 1 -S COLOR -c black -o black -i black -I black
n -t 20 -s 2 -S COLOR -c black -o black -i black -I black
n -t 20 -s 3 -S COLOR -c black -o black -i black -I black
n -t 20 -s 4 -S COLOR -c black -o black -i black -I black
n -t 20 -s 5 -S COLOR -c black -o black -i black -I black
n -t 20 -s 6 -S COLOR -c black -o black -i black -I black
n -t 20 -s 7 -S COLOR -c black -o black -i black -I black
n -t 20 -s 8 -S COLOR -c black -o black -i black -I black
n -t 20 -s 9 -S COLOR -c black -o black -i black -I black
n -t 21 -s 10 -S COLOR -c black -o black -i black -I black
n -t 21 -s 0 -S COLOR -c black -o black -i black -I black
n -t 21 -s 1 -S COLOR -c black -o black -i black -I black
n -t 21 -s 2 -S COLOR -c black -o black -i black -I black
n -t 21 -s 3 -S COLOR -c black -o black -i black -I black
n -t 21 -s 4 -S COLOR -c black -o black -i black -I black
n -t 21 -s 5 -S COLOR -c black -o black -i black -I black
n -t 21 -s 6 -S COLOR -c black -o black -i black -I black
n -t 21 -s 7 -S COLOR -c black -o black -i black -I black
n -t 21 -s 8 -S COLOR -c black -o black -i black -I black
n -t 21 -s 9 -S COLOR -c black -o black -i black -I black
n -t 22 -s 10 -S COLOR -c black -o black -i black -I black
n -t 22 -s 0 -S COLOR -c black -o black -i black -I black
n -t 22 -s 1 -S COLOR -c black -o black -i black -I black
n -t 22 -s 2 -S COLOR -c black -o black -i black -I black
n -t 22 -s 3 -S COLOR -c black -o black -i black -I black
n -t 22 -s 4 -S COLOR -c black -o black -i black -I black
n -t 22 -s 5 -S COLOR -c black -o black -i black -I black
n -t 22 -s 6 -S COLOR -c black -o black -i black -I black
n -t 22 -s 7 -S COLOR -c black -o black -i black -I black
n -t 22 -s 8 -S COLOR -c black -o black -i black -I black
n -t 22 -s 9 -S COLOR -c black -o black -i black -I black
n -t 23 -s 10 -S COLOR -c black -o black -i black -I black
n -t 23 -s 0 -S COLOR -c black -o black -i black -I black
n -t 23 -s 1 -S COLOR -c black -o black -i black -I black
n -t 23 -s 2 -S COLOR -c black -o black -i black -I black
n -t 23 -s 3 -S COLOR -c black -o black -i black -I black
n -t 23 -s 4 -S COLOR -c black -o black -i black -I black
n -t 23 -s 5 -S COLOR -c black -o black -i black -I black
n -t 23 -s 6 -S COLOR -c black -o black -i black -I black
n -t 23 -s 7 -S COLOR -c black -o black -i black -I black
n -t 23 -s 8 -S COLOR -c black -o black -i black -I black
n -t 23 -s 9 -S COLOR -c black -o black -i black -I black
n -t 24 -s 10 -S COLOR -c black -o black -i black -I black
n -t 24 -s 0 -S COLOR -c black -o black -i black -I black
n -t 24 -s 1 -S COLOR -c black -o black -i black -I black
n -t 24 -s 2 -S COLOR -c black -o black -i black -I black
n -t 24 -s 3 -S COLOR -c black -o black -i black -I black
n -t 24 -s 4 -S COLOR -c black -o black -i black -I black
n -t 24 -s 5 -S COLOR -c black -o black -i black -I black
n -t 24 -s 6 -S COLOR -c black -o black -i black -I black
n -t 24 -s 7 -S COLOR -c black -o black -i black -I black
n -t 24 -s 8 -S COLOR -c black -o black -i black -I black
n -t 24 -s 9 -S COLOR -c black -o black -i black -I black
n -t 25 -s 10 -S COLOR -c black -o black -i black -I black
n -t 25 -s 0 -S COLOR -c black -o black -i black -I black
n -t 25 -s 1 -S COLOR -c black -o black -i black -I black
n -t 25 -s 2 -S COLOR -c black -o black -i black -I black
n -t 25 -s 3 -S COLOR -c black -o black -i black -I black
n -t 25 -s 4 -S COLOR -c black -o black -i black -I black
n -t 25 -s 5 -S COLOR -c black -o black -i black -I black
n -t 25 -s 6 -S COLOR -c black -o black -i black -I black
n -t 25 -s 7 -S COLOR -c black -o black -i black -I black
n -t 25 -s 8 -S COLOR -c black -o black -i black -I black
n -t 25 -s 9 -S COLOR -c black -o black -i black -I black
n -t 26 -s 10 -S COLOR -c black -o black -i black -I black
n -t 26 -s 0 -S COLOR -c black -o black -i black -I black
n -t 26 -s 1 -S COLOR -c black -o black -i black -I black
n -t 26 -s 2 -S COLOR -c black -o black -i black -I black
n -t 26 -s 3 -S COLOR -c black -o black -i black -I black
n -t 26 -s 4 -S COLOR -c black -o black -i black -I black
n -t 26 -s 5 -S COLOR -c black -o black -i black -I black
n -t 26 -s 6 -S COLOR -c black -o black -i black -I black
n -t 26 -s 7 -S COLOR -c black -o black -i black -I black
n -t 26 -s 8 -S COLOR -c black -o black -i black -I black
n -t 26 -s 9 -S COLOR -c black -o black -i black -I black
n -t 27 -s 10 -S COLOR -c black -o black -i black -I black
n -t 27 -s 0 -S COLOR -c black -o black -i black -I black
n -t 27 -s 1 -S COLOR -c black -o black -i black -I black
n -t 27 -s 2 -S COLOR -c black -o black -i black -I black
n -t 27 -s 3 -S COLOR -c black -o black -i black -I black
n -t 27 -s 4 -S COLOR -c black -o black -i black -I black
n -t 27 -s 5 -S COLOR -c black -o black -i black -I black
n -t 27 -s 6 -S COLOR -c black -o black -i black -I black
n -t 27 -s 7 -S COLOR -c black -o black -i black -I black
n -t 27 -s 8 -S COLOR -c black -o black -i black -I black
n -t 27 -s 9 -S COLOR -c black -o black -i black -I black
n -t 28 -s 10 -S COLOR -c black -o black -i black -I black
n -t 28 -s 0 -S COLOR -c black -o black -i black -I black
n -t 28 -s 1 -S COLOR -c black -o black -i black -I black
n -t 28 -s 2 -S COLOR -c black -o black -i black -I black
n -t 28 -s 3 -S COLOR -c black -o black -i black -I black
n -t 28 -s 4 -S COLOR -c black -o black -i black -I black
n -t 28 -s 5 -S COLOR -c black -o black -i black -I black
n -t 28 -s 6 -S COLOR -c black -o black -i black -I black
n -t 28 -s 7 -S COLOR -c black -o black -i black -I black
n -t 28 -s 8 -S COLOR -c black -o black -i black -I black
n -t 28 -s 9 -S COLOR -c black -o black -i black -I black
n -t 29 -s 10 -S COLOR -c black -o black -i black -I black
n -t 29 -s 0 -S COLOR -c black -o black -i black -I black
n -t 29 -s 1 -S COLOR -c black -o black -i black -I black
n -t 29 -s 2 -S COLOR -c black -o black -i black -I black
n -t 29 -s 3 -S COLOR -c black -o black -i black -I black
n -t 29 -s 4 -S COLOR -c black -o black -i black -I black
n -t 29 -s 5 -S COLOR -c black -o black -i black -I black
n -t 29 -s 6 -S COLOR -c black -o black -i black -I black
n -t 29 -s 7 -S COLOR -c black -o black -i black -I black
n -t 29 -s 8 -S COLOR -c black -o black -i black -I black
n -t 29 -s 9 -S COLOR -c black -o black -i black -I black
n -t 30 -s 10 -S COLOR -c black -o black -i black -I black
n -t 30 -s 0 -S COLOR -c black -o black -i black -I black
n -t 30 -s 1 -S COLOR -c black -o black -i black -I black
n -t 30 -s 2 -S COLOR -c black -o black -i black -I black
n -t 30 -s 3 -S COLOR -c black -o black -i black -I black
n -t 30 -s 4 -S COLOR -c black -o black -i black -I black
n -t 30 -s 5 -S COLOR -c black -o black -i black -I black
n -t 30 -s 6 -S COLOR -c black -o black -i black -I black
n -t 30 -s 7 -S COLOR -c black -o black -i black -I black
n -t 30 -s 8 -S COLOR -c black -o black -i black -I black
n -t 30 -s 9 -S COLOR -c black -o black -i black -I black
n -t 31 -s 10 -S COLOR -c black -o black -i black -I black
n -t 31 -s 0 -S COLOR -c black -o black -i black -I black
n -t 31 -s 1 -S COLOR -c black -o black -i black -I black
n -t 31 -s 2 -S COLOR -c black -o black -i black -I black
n -t 31 -s 3 -S COLOR -c black -o black -i black -I black
n -t 31 -s 4 -S COLOR -c black -o black -i black -I black
n -t 31 -s 5 -S COLOR -c black -o black -i black -I black
n -t 31 -s 6 -S COLOR -c black -o black -i black -I black
n -t 31 -s 7 -S COLOR -c black -o black -i black -I black
n -t 31 -s 8 -S COLOR -c black -o black -i black -I black
n -t 31 -s 9 -S COLOR -c black -o black -i black -I black
n -t 32 -s 10 -S COLOR -c black -o black -i black -I black
n -t 32 -s 0 -S COLOR -c black -o black -i black -I black
n -t 32 -s 1 -S COLOR -c black -o black -i black -I black
n -t 32 -s 2 -S COLOR -c black -o black -i black -I black
n -t 32 -s 3 -S COLOR -c black -o black -i black -I black
n -t 32 -s 4 -S COLOR -c black -o black -i black -I black
n -t 32 -s 5 -S COLOR -c black -o black -i black -I black
n -t 32 -s 6 -S COLOR -c black -o black -i black -I black
n -t 32 -s 7 -S COLOR -c black -o black -i black -I black
n -t 32 -s 8 -S COLOR -c black -o black -i black -I black
n -t 32 -s 9 -S COLOR -c black -o black -i black -I black
n -t 33 -s 10 -S COLOR -c black -o black -i black -I black
n -t 33 -s 0 -S COLOR -c black -o black -i black -I black
n -t 33 -s 1 -S COLOR -c black -o black -i black -I black
n -t 33 -s 2 -S COLOR -c black -o black -i black -I black
n -t 33 -s 3 -S COLOR -c black -o black -i black -I black
n -t 33 -s 4 -S COLOR -c black -o black -i black -I black
n -t 33 -s 5 -S COLOR -c black -o black -i black -I black
n -t 33 -s 6 -S COLOR -c black -o black -i black -I black
n -t 33 -s 7 -S COLOR -c black -o black -i black -I black
n -t 33 -s 8 -S COLOR -c black -o black -i black -I black
n -t 33 -s 9 -S COLOR -c black -o black -i black -I black
n -t 34 -s 10 -S COLOR -c black -o black -i black -I black
n -t 34 -s 0 -S COLOR -c black -o black -i black -I black
n -t 34 -s 1 -S COLOR -c black -o black -i black -I black
n -t 34 -s 2 -S COLOR -c black -o black -i black -I black
n -t 34 -s 3 -S COLOR -c black -o black -i black -I black
n -t 34 -s 4 -S COLOR -c black -o black -i black -I black
n -t 34 -s 5 -S COLOR -c black -o black -i black -I black
n -t 34 -s 6 -S COLOR -c black -o black -i black -I black
n -t 34 -s 7 -S COLOR -c black -o black -i black -I black
n -t 34 -s 8 -S COLOR -c black -o black -i black -I black
n -t 34 -s 9 -S COLOR -c black -o black -i black -I black
n -t 35 -s 10 -S COLOR -c black -o black -i black -I black
n -t 35 -s 0 -S COLOR -c black -o black -i black -I black
n -t 35 -s 1 -S COLOR -c black -o black -i black -I black
n -t 35 -s 2 -S COLOR -c black -o black -i black -I black
n -t 35 -s 3 -S COLOR -c black -o black -i black -I black
n -t 35 -s 4 -S COLOR -c black -o black -i black -I black
n -t 35 -s 5 -S COLOR -c black -o black -i black -I black
n -t 35 -s 6 -S COLOR -c black -o black -i black -I black
n -t 35 -s 7 -S COLOR -c black -o black -i black -I black
n -t 35 -s 8 -S COLOR -c black -o black -i black -I black
n -t 35 -s 9 -S COLOR -c black -o black -i black -I black
n -t 36 -s 10 -S COLOR -c black -o black -i black -I black
n -t 36 -s 0 -S COLOR -c black -o black -i black -I black
n -t 36 -s 1 -S COLOR -c black -o black -i black -I black
n -t 36 -s 2 -S COLOR -c black -o black -i black -I black
n -t 36 -s 3 -S COLOR -c black -o black -i black -I black
n -t 36 -s 4 -S COLOR -c black -o black -i black -I black
n -t 36 -s 5 -S COLOR -c black -o black -i black -I black
n -t 36 -s 6 -S COLOR -c black -o black -i black -I black
n -t 36 -s 7 -S COLOR -c black -o black -i black -I black
n -t 36 -s 8 -S COLOR -c black -o black -i black -I black
n -t 36 -s 9 -S COLOR -c black -o black -i black -I black
n -t 37 -s 10 -S COLOR -c black -o black -i black -I black
n -t 37 -s 0 -S COLOR -c black -o black -i black -I black
n -t 37 -s 1 -S COLOR -c black -o black -i black -I black
n -t 37 -s 2 -S COLOR -c black -o black -i black -I black
n -t 37 -s 3 -S COLOR -c black -o black -i black -I black
n -t 37 -s 4 -S COLOR -c black -o black -i black -I black
n -t 37 -s 5 -S COLOR -c black -o black -i black -I black
n -t 37 -s 6 -S COLOR -c black -o black -i black -I black
n -t 37 -s 7 -S COLOR -c black -o black -i black -I black
n -t 37 -s 8 -S COLOR -c black -o black -i black -I black
n -t 37 -s 9 -S COLOR -c black -o black -i black -I black
n -t 38 -s 10 -S COLOR -c black -o black -i black -I black
n -t 38 -s 0 -S COLOR -c black -o black -i black -I black
n -t 38 -s 1 -S COLOR -c black -o black -i black -I black
n -t 38 -s 2 -S COLOR -c black -o black -i black -I black
n -t 38 -s 3 -S COLOR -c black -o black -i black -I black
n -t 38 -s 4 -S COLOR -c black -o black -i black -I black
n -t 38 -s 5 -S COLOR -c black -o black -i black -I black
n -t 38 -s 6 -S COLOR -c black -o black -i black -I black
n -t 38 -s 7 -S COLOR -c black -o black -i black -I black
n -t 38 -s 8 -S COLOR -c black -o black -i black -I black
n -t 38 -s 9 -S COLOR -c black -o black -i black -I black
n -t 39 -s 10 -S COLOR -c black -o black -i black -I black
n -t 39 -s 0 -S COLOR -c black -o black -i black -I black
n -t 39 -s 1 -S COLOR -c black -o black -i black -I black
n -t 39 -s 2 -S COLOR -c black -o black -i black -I black
n -t 39 -s 3 -S COLOR -c black -o black -i black -I black
n -t 39 -s 4 -S COLOR -c black -o black -i black -I black
n -t 39 -s 5 -S COLOR -c black -o black -i black -I black
n -t 39 -s 6 -S COLOR -c black -o black -i black -I black
n -t 39 -s 7 -S COLOR -c black -o black -i black -I black
n -t 39 -s 8 -S COLOR -c black -o black -i black -I black
n -t 39 -s 9 -S COLOR -c black -o black -i black -I black
n -t 40 -s 10 -S COLOR -c black -o black -i black -I black
n -t 40 -s 0 -S COLOR -c black -o black -i black -I black
n -t 40 -s 1 -S COLOR -c black -o black -i black -I black
n -t 40 -s 2 -S COLOR -c black -o black -i black -I black
n -t 40 -s 3 -S COLOR -c black -o black -i black -I black
n -t 40 -s 4 -S COLOR -c black -o black -i black -I black
n -t 40 -s 5 -S COLOR -c black -o black -i black -I black
n -t 40 -s 6 -S COLOR -c black -o black -i black -I black
n -t 40 -s 7 -S COLOR -c black -o black -i black -I black
n -t 40 -s 8 -S COLOR -c black -o black -i black -I black
n -t 40 -s 9 -S COLOR -c black -o black -i black -I black
n -t 41 -s 10 -S COLOR -c black -o black -i black -I black
n -t 41 -s 0 -S COLOR -c black -o black -i black -I black
n -t 41 -s 1 -S COLOR -c black -o black -i black -I black
n -t 41 -s 2 -S COLOR -c black -o black -i black -I black
n -t 41 -s 3 -S COLOR -c black -o black -i black -I black
n -t 41 -s 4 -S COLOR -c black -o black -i black -I black
n -t 41 -s 5 -S COLOR -c black -o black -i black -I black
n -t 41 -s 6 -S COLOR -c black -o black -i black -I black
n -t 41 -s 7 -S COLOR -c black -o black -i black -I black
n -t 41 -s 8 -S COLOR -c black -o black -i black -I black
n -t 41 -s 9 -S COLOR -c black -o black -i black -I black
n -t 42 -s 10 -S COLOR -c black -o black -i black -I black
n -t 42 -s 0 -S COLOR -c black -o black -i black -I black
n -t 42 -s 1 -S COLOR -c black -o black -i black -I black
n -t 42 -s 2 -S COLOR -c black -o black -i black -I black
n -t 42 -s 3 -S COLOR -c black -o black -i black -I black
n -t 42 -s 4 -S COLOR -c black -o black -i black -I black
n -t 42 -s 5 -S COLOR -c black -o black -i black -I black
n -t 42 -s 6 -S COLOR -c black -o black -i black -I black
n -t 42 -s 7 -S COLOR -c black -o black -i black -I black
n -t 42 -s 8 -S COLOR -c black -o black -i black -I black
n -t 42 -s 9 -S COLOR -c black -o black -i black -I black
n -t 43 -s 10 -S COLOR -c black -o black -i black -I black
n -t 43 -s 0 -S COLOR -c black -o black -i black -I black
n -t 43 -s 1 -S COLOR -c black -o black -i black -I black
n -t 43 -s 2 -S COLOR -c black -o black -i black -I black
n -t 43 -s 3 -S COLOR -c black -o black -i black -I black
n -t 43 -s 4 -S COLOR -c black -o black -i black -I black
n -t 43 -s 5 -S COLOR -c black -o black -i black -I black
n -t 43 -s 6 -S COLOR -c black -o black -i black -I black
n -t 43 -s 7 -S COLOR -c black -o black -i black -I black
n -t 43 -s 8 -S COLOR -c black -o black -i black -I black
n -t 43 -s 9 -S COLOR -c black -o black -i black -I black
n -t 44 -s 10 -S COLOR -c black -o black -i black -I black
n -t 44 -s 0 -S COLOR -c black -o black -i black -I black
n -t 44 -s 1 -S COLOR -c black -o black -i black -I black
n -t 44 -s 2 -S COLOR -c black -o black -i black -I black
n -t 44 -s 3 -S COLOR -c black -o black -i black -I black
n -t 44 -s 4 -S COLOR -c black -o black -i black -I black
n -t 44 -s 5 -S COLOR -c black -o black -i black -I black
n -t 44 -s 6 -S COLOR -c black -o black -i black -I black
n -t 44 -s 7 -S COLOR -c black -o black -i black -I black
n -t 44 -s 8 -S COLOR -c black -o black -i black -I black
n -t 44 -s 9 -S COLOR -c black -o black -i black -I black
n -t 45 -s 10 -S COLOR -c black -o black -i black -I black
n -t 45 -s 0 -S COLOR -c black -o black -i black -I black
n -t 45 -s 1 -S COLOR -c black -o black -i black -I black
n -t 45 -s 2 -S COLOR -c black -o black -i black -I black
n -t 45 -s 3 -S COLOR -c black -o black -i black -I black