n -t * -s 0  -x 4.6557246542795214 -y 8.0401560655050712 -Z 0 -z 1  -v circle -c black
n -t * -s 1  -x 3.8628856436642285 -y 8.8795228809488584 -Z 0 -z 1  -v circle -c black
n -t * -s 2  -x 5.8575829797692522 -y 11.202681018599627 -Z 0 -z 1  -v circle -c black
n -t * -s 3  -x 3.3803883303796818 -y 18.398682246170324 -Z 0 -z 1  -v circle -c black
n -t * -s 4  -x 14.507662800377078 -y 16.192176591694437 -Z 0 -z 1  -v circle -c black
n -t * -s 5  -x 15 -y 15 -Z 0 -z 2  -v circle -c black
V -t * -v 1.0a5 -a 0
W -t * -x 30 -y 30
A -t * -n 1 -p 0 -o 0x7fffffff -c 30 -a 1
A -t * -h 1 -m 1073741823 -s 0
n -t 0 -s 5 -S COLOR -c red -o black -i red -I black
n -t 0 -s 0 -S COLOR -c black -o black -i black -I black
n -t 0 -s 1 -S COLOR -c black -o black -i black -I black
n -t 0 -s 2 -S COLOR -c black -o black -i black -I black
n -t 0 -s 3 -S COLOR -c black -o black -i black -I black
n -t 0 -s 4 -S COLOR -c black -o black -i black -I black
n -t 1 -s 5 -S COLOR -c black -o red -i black -I red
n -t 1 -s 0 -S COLOR -c black -o black -i black -I black
n -t 1 -s 1 -S COLOR -c black -o black -i black -I black
n -t 1 -s 2 -S COLOR -c black -o black -i black -I black
n -t 1 -s 3 -S COLOR -c black -o black -i black -I black
n -t 1 -s 4 -S COLOR -c black -o black -i black -I black
n -t 2 -s 5 -S COLOR -c red -o black -i red -I black
n -t 2 -s 0 -S COLOR -c black -o black -i black -I black
n -t 2 -s 1 -S COLOR -c black -o black -i black -I black
n -t 2 -s 2 -S COLOR -c black -o black -i black -I black
n -t 2 -s 3 -S COLOR -c black -o black -i black -I black
n -t 2 -s 4 -S COLOR -c black -o black -i black -I black
n -t 3 -s 5 -S COLOR -c red -o red -i red -I red
n -t 3 -s 0 -S COLOR -c black -o black -i black -I black
n -t 3 -s 1 -S COLOR -c black -o black -i black -I black
n -t 3 -s 2 -S COLOR -c black -o black -i black -I black
n -t 3 -s 3 -S COLOR -c black -o black -i black -I black
n -t 3 -s 4 -S COLOR -c black -o black -i black -I black
n -t 4 -s 5 -S COLOR -c black -o red -i black -I red
n -t 4 -s 0 -S COLOR -c black -o black -i black -I black
n -t 4 -s 1 -S COLOR -c black -o black -i black -I black
n -t 4 -s 2 -S COLOR -c black -o black -i black -I black
n -t 4 -s 3 -S COLOR -c black -o black -i black -I black
n -t 4 -s 4 -S COLOR -c black -o black -i black -I black
n -t 5 -s 5 -S COLOR -c red -o black -i red -I black
n -t 5 -s 0 -S COLOR -c black -o black -i black -I black
n -t 5 -s 1 -S COLOR -c black -o black -i black -I black
n -t 5 -s 2 -S COLOR -c black -o black -i black -I black
n -t 5 -s 3 -S COLOR -c black -o black -i black -I black
n -t 5 -s 4 -S COLOR -c black -o black -i black -I black
n -t 6 -s 5 -S COLOR -c black -o red -i black -I red
n -t 6 -s 0 -S COLOR -c black -o black -i black -I black
n -t 6 -s 1 -S COLOR -c black -o black -i black -I black
n -t 6 -s 2 -S COLOR -c black -o black -i black -I black
n -t 6 -s 3 -S COLOR -c black -o black -i black -I black
n -t 6 -s 4 -S COLOR -c black -o black -i black -I black
n -t 7 -s 5 -S COLOR -c black -o black -i black -I black
n -t 7 -s 0 -S COLOR -c black -o black -i black -I black
n -t 7 -s 1 -S COLOR -c black -o black -i black -I black
n -t 7 -s 2 -S COLOR -c black -o black -i black -I black
n -t 7 -s 3 -S COLOR -c black -o black -i black -I black
n -t 7 -s 4 -S COLOR -c black -o black -i black -I black
n -t 8 -s 5 -S COLOR -c black -o black -i black -I black
n -t 8 -s 0 -S COLOR -c black -o black -i black -I black
n -t 8 -s 1 -S COLOR -c black -o black -i black -I black
n -t 8 -s 2 -S COLOR -c black -o black -i black -I black
n -t 8 -s 3 -S COLOR -c black -o black -i black -I black
n -t 8 -s 4 -S COLOR -c black -o black -i black -I black
n -t 9 -s 5 -S COLOR -c red -o black -i red -I black
n -t 9 -s 0 -S COLOR -c black -o black -i black -I black
n -t 9 -s 1 -S COLOR -c black -o black -i black -I black
n -t 9 -s 2 -S COLOR -c black -o black -i black -I black
n -t 9 -s 3 -S COLOR -c black -o black -i black -I black
n -t 9 -s 4 -S COLOR -c black -o black -i black -I black
