n -t * -s 0  -x 27.451856996608832 -y 16.954856299308528 -Z 0 -z 1  -v circle -c black
n -t * -s 1  -x 25.830737005840401 -y 23.192122952636389 -Z 0 -z 1  -v circle -c black
n -t * -s 2  -x 1.2963486236037447 -y 9.4209481307402942 -Z 0 -z 1  -v circle -c black
n -t * -s 3  -x 15 -y 15 -Z 0 -z 2  -v circle -c black
V -t * -v 1.0a5 -a 0
W -t * -x 30 -y 30
A -t * -n 1 -p 0 -o 0x7fffffff -c 30 -a 1
A -t * -h 1 -m 1073741823 -s 0
n -t 0 -s 3 -S COLOR -c black -o black -i black -I black
n -t 0 -s 0 -S COLOR -c black -o black -i black -I black
n -t 0 -s 1 -S COLOR -c black -o black -i black -I black
n -t 0 -s 1 -S COLOR -c green -o black -i green -I black
n -t 0 -s 2 -S COLOR -c black -o black -i black -I black
n -t 1 -s 3 -S COLOR -c black -o black -i black -I black
n -t 1 -s 0 -S COLOR -c black -o black -i black -I black
n -t 1 -s 0 -S COLOR -c green -o black -i green -I black
n -t 1 -s 1 -S COLOR -c black -o green -i black -I green
n -t 1 -s 1 -S COLOR -c green -o black -i green -I black
n -t 1 -s 2 -S COLOR -c black -o black -i black -I black
n -t 2 -s 3 -S COLOR -c red -o black -i red -I black
n -t 2 -s 0 -S COLOR -c black -o green -i black -I green
n -t 2 -s 0 -S COLOR -c green -o black -i green -I black
n -t 2 -s 1 -S COLOR -c black -o green -i black -I green
n -t 2 -s 2 -S COLOR -c black -o black -i black -I black
n -t 2 -s 2 -S COLOR -c green -o black -i green -I black
n -t 3 -s 3 -S COLOR -c black -o red -i black -I red
n -t 3 -s 0 -S COLOR -c black -o green -i black -I green
n -t 3 -s 1 -S COLOR -c black -o black -i black -I black
n -t 3 -s 2 -S COLOR -c black -o green -i black -I green
n -t 3 -s 2 -S COLOR -c green -o black -i green -I black
n -t 4 -s 3 -S COLOR -c black -o black -i black -I black
n -t 4 -s 0 -S COLOR -c black -o black -i black -I black
n -t 4 -s 0 -S COLOR -c green -o black -i green -I black
n -t 4 -s 1 -S COLOR -c black -o black -i black -I black
n -t 4 -s 1 -S COLOR -c green -o black -i green -I black
n -t 4 -s 2 -S COLOR -c black -o green -i black -I green
n -t 4 -s 2 -S COLOR -c green -o black -i green -I black
n -t 5 -s 3 -S COLOR -c black -o black -i black -I black
n -t 5 -s 0 -S COLOR -c black -o green -i black -I green
n -t 5 -s 0 -S COLOR -c green -o black -i green -I black
n -t 5 -s 1 -S COLOR -c black -o green -i black -I green
n -t 5 -s 1 -S COLOR -c green -o black -i green -I black
n -t 5 -s 2 -S COLOR -c black -o green -i black -I green
n -t 6 -s 3 -S COLOR -c black -o black -i black -I black
n -t 6 -s 0 -S COLOR -c black -o green -i black -I green
n -t 6 -s 0 -S COLOR -c green -o black -i green -I black
n -t 6 -s 1 -S COLOR -c black -o green -i black -I green
n -t 6 -s 1 -S COLOR -c green -o black -i green -I black
n -t 6 -s 2 -S COLOR -c black -o black -i black -I black
n -t 7 -s 3 -S COLOR -c black -o black -i black -I black
n -t 7 -s 0 -S COLOR -c black -o green -i black -I green
n -t 7 -s 0 -S COLOR -c green -o black -i green -I black
n -t 7 -s 1 -S COLOR -c black -o green -i black -I green
n -t 7 -s 2 -S COLOR -c black -o black -i black -I black
n -t 7 -s 2 -S COLOR -c green -o black -i green -I black
n -t 8 -s 3 -S COLOR -c black -o black -i black -I black
n -t 8 -s 0 -S COLOR -c black -o green -i black -I green
n -t 8 -s 1 -S COLOR -c black -o black -i black -I black
n -t 8 -s 1 -S COLOR -c green -o black -i green -I black
n -t 8 -s 2 -S COLOR -c black -o green -i black -I green
n -t 8 -s 2 -S COLOR -c green -o black -i green -I black
n -t 9 -s 3 -S COLOR -c black -o black -i black -I black
n -t 9 -s 0 -S COLOR -c black -o black -i black -I black
n -t 9 -s 0 -S COLOR -c green -o black -i green -I black
n -t 9 -s 1 -S COLOR -c black -o green -i black -I green
n -t 9 -s 1 -S COLOR -c green -o black -i green -I black
n -t 9 -s 2 -S COLOR -c black -o green -i black -I green
n -t 9 -s 2 -S COLOR -c green -o black -i green -I black
