n -t * -s 0  -x 2.1380810775505754 -y 21.521060635112718 -Z 0 -z 1  -v circle -c black
n -t * -s 1  -x 14.287977756135156 -y 24.654683025858684 -Z 0 -z 1  -v circle -c black
n -t * -s 2  -x 21.098892237571484 -y 25.687739069428172 -Z 0 -z 1  -v circle -c black
n -t * -s 3  -x 4.3762045560293856 -y 22.028300669988759 -Z 0 -z 1  -v circle -c black
n -t * -s 4  -x 5.1963433973474169 -y 7.8505194316853384 -Z 0 -z 1  -v circle -c black
n -t * -s 5  -x 15 -y 15 -Z 0 -z 2  -v circle -c black
V -t * -v 1.0a5 -a 0
W -t * -x 30 -y 30
A -t * -n 1 -p 0 -o 0x7fffffff -c 30 -a 1
A -t * -h 1 -m 1073741823 -s 0
n -t 0 -s 5 -S COLOR -c black -o black -i black -I black
n -t 0 -s 1 -S COLOR -c black -o black -i black -I black
n -t 1 -s 5 -S COLOR -c black -o black -i black -I black
n -t 1 -s 1 -S COLOR -c black -o black -i black -I black
n -t 1 -s 1 -S COLOR -c green -o black -i green -I black
n -t 2 -s 5 -S COLOR -c black -o black -i black -I black
n -t 2 -s 1 -S COLOR -c black -o green -i black -I green
n -t 3 -s 5 -S COLOR -c black -o black -i black -I black
n -t 3 -s 1 -S COLOR -c black -o black -i black -I black
n -t 4 -s 5 -S COLOR -c black -o black -i black -I black
n -t 4 -s 1 -S COLOR -c black -o black -i black -I black
n -t 5 -s 5 -S COLOR -c black -o black -i black -I black
n -t 5 -s 1 -S COLOR -c black -o black -i black -I black
n -t 6 -s 5 -S COLOR -c black -o black -i black -I black
n -t 6 -s 1 -S COLOR -c black -o black -i black -I black
n -t 7 -s 5 -S COLOR -c black -o black -i black -I black
n -t 7 -s 1 -S COLOR -c black -o black -i black -I black
n -t 8 -s 5 -S COLOR -c black -o black -i black -I black
n -t 8 -s 1 -S COLOR -c black -o black -i black -I black
n -t 9 -s 5 -S COLOR -c black -o black -i black -I black
n -t 9 -s 1 -S COLOR -c black -o black -i black -I black
n -t 10 -s 5 -S COLOR -c black -o black -i black -I black
n -t 10 -s 1 -S COLOR -c black -o black -i black -I black
n -t 11 -s 5 -S COLOR -c red -o black -i red -I black
n -t 11 -s 1 -S COLOR -c black -o black -i black -I black
n -t 11 -s 1 -S COLOR -c green -o black -i green -I black
n -t 12 -s 5 -S COLOR -c black -o red -i black -I red
n -t 12 -s 1 -S COLOR -c black -o green -i black -I green
n -t 13 -s 5 -S COLOR -c black -o black -i black -I black
n -t 13 -s 1 -S COLOR -c black -o black -i black -I black
n -t 14 -s 5 -S COLOR -c black -o black -i black -I black
n -t 14 -s 1 -S COLOR -c black -o black -i black -I black
n -t 15 -s 5 -S COLOR -c black -o black -i black -I black
n -t 15 -s 1 -S COLOR -c black -o black -i black -I black
n -t 16 -s 5 -S COLOR -c black -o black -i black -I black
n -t 16 -s 1 -S COLOR -c black -o black -i black -I black
n -t 17 -s 5 -S COLOR -c black -o black -i black -I black
n -t 17 -s 1 -S COLOR -c black -o black -i black -I black
n -t 18 -s 5 -S COLOR -c black -o black -i black -I black
n -t 18 -s 1 -S COLOR -c black -o black -i black -I black
n -t 19 -s 5 -S COLOR -c black -o black -i black -I black
n -t 19 -s 1 -S COLOR -c black -o black -i black -I black
n -t 19 -s 1 -S COLOR -c green -o black -i green -I black
n -t 20 -s 5 -S COLOR -c black -o black -i black -I black
n -t 20 -s 1 -S COLOR -c black -o green -i black -I green
n -t 21 -s 5 -S COLOR -c black -o black -i black -I black
n -t 21 -s 1 -S COLOR -c black -o black -i black -I black
n -t 21 -s 1 -S COLOR -c green -o black -i green -I black
n -t 22 -s 5 -S COLOR -c black -o black -i black -I black
n -t 22 -s 1 -S COLOR -c black -o green -i black -I green
n -t 23 -s 5 -S COLOR -c black -o black -i black -I black
n -t 23 -s 1 -S COLOR -c black -o black -i black -I black
n -t 24 -s 5 -S COLOR -c black -o black -i black -I black
n -t 24 -s 1 -S COLOR -c black -o black -i black -I black
n -t 25 -s 5 -S COLOR -c black -o black -i black -I black
n -t 25 -s 1 -S COLOR -c black -o black -i black -I black
n -t 26 -s 5 -S COLOR -c black -o black -i black -I black
n -t 26 -s 1 -S COLOR -c black -o black -i black -I black
n -t 27 -s 5 -S COLOR -c black -o black -i black -I black
n -t 27 -s 1 -S COLOR -c black -o black -i black -I black
n -t 28 -s 5 -S COLOR -c black -o black -i black -I black
n -t 28 -s 1 -S COLOR -c black -o black -i black -I black
n -t 29 -s 5 -S COLOR -c black -o black -i black -I black
n -t 29 -s 1 -S COLOR -c black -o black -i black -I black
n -t 30 -s 5 -S COLOR -c black -o black -i black -I black
n -t 30 -s 1 -S COLOR -c black -o black -i black -I black
n -t 31 -s 5 -S COLOR -c black -o black -i black -I black
n -t 31 -s 1 -S COLOR -c black -o black -i black -I black
n -t 32 -s 5 -S COLOR -c red -o black -i red -I black
n -t 32 -s 1 -S COLOR -c black -o black -i black -I black
n -t 32 -s 1 -S COLOR -c green -o black -i green -I black
n -t 33 -s 5 -S COLOR -c black -o red -i black -I red
n -t 33 -s 1 -S COLOR -c black -o green -i black -I green
n -t 34 -s 5 -S COLOR -c red -o black -i red -I black
n -t 34 -s 1 -S COLOR -c black -o black -i black -I black
n -t 34 -s 1 -S COLOR -c green -o black -i green -I black
n -t 35 -s 5 -S COLOR -c black -o red -i black -I red
n -t 35 -s 1 -S COLOR -c black -o green -i black -I green
n -t 36 -s 5 -S COLOR -c black -o black -i black -I black
n -t 36 -s 1 -S COLOR -c black -o black -i black -I black
n -t 37 -s 5 -S COLOR -c black -o black -i black -I black
n -t 37 -s 1 -S COLOR -c black -o black -i black -I black
n -t 37 -s 1 -S COLOR -c green -o black -i green -I black
n -t 38 -s 5 -S COLOR -c black -o black -i black -I black
n -t 38 -s 1 -S COLOR -c black -o green -i black -I green
n -t 39 -s 5 -S COLOR -c black -o black -i black -I black
n -t 39 -s 1 -S COLOR -c black -o black -i black -I black
n -t 40 -s 5 -S COLOR -c black -o black -i black -I black
n -t 40 -s 1 -S COLOR -c black -o black -i black -I black
n -t 41 -s 5 -S COLOR -c black -o black -i black -I black
n -t 41 -s 1 -S COLOR -c black -o black -i black -I black
n -t 42 -s 5 -S COLOR -c black -o black -i black -I black
n -t 42 -s 1 -S COLOR -c black -o black -i black -I black
n -t 43 -s 5 -S COLOR -c black -o black -i black -I black
n -t 43 -s 1 -S COLOR -c black -o black -i black -I black
n -t 44 -s 5 -S COLOR -c red -o black -i red -I black
n -t 44 -s 1 -S COLOR -c black -o black -i black -I black
n -t 44 -s 1 -S COLOR -c green -o black -i green -I black
n -t 45 -s 5 -S COLOR -c red -o red -i red -I red
n -t 45 -s 1 -S COLOR -c black -o green -i black -I green
n -t 46 -s 5 -S COLOR -c black -o red -i black -I red
n -t 46 -s 1 -S COLOR -c black -o black -i black -I black
n -t 47 -s 5 -S COLOR -c black -o black -i black -I black
n -t 47 -s 1 -S COLOR -c black -o black -i black -I black
n -t 48 -s 5 -S COLOR -c red -o black -i red -I black
n -t 48 -s 1 -S COLOR -c black -o black -i black -I black
n -t 48 -s 1 -S COLOR -c green -o black -i green -I black
n -t 49 -s 5 -S COLOR -c black -o red -i black -I red
n -t 49 -s 1 -S COLOR -c black -o green -i black -I green
n -t 50 -s 5 -S COLOR -c black -o black -i black -I black
n -t 50 -s 1 -S COLOR -c black -o black -i black -I black
n -t 50 -s 1 -S COLOR -c green -o black -i green -I black
n -t 51 -s 5 -S COLOR -c black -o black -i black -I black
n -t 51 -s 1 -S COLOR -c black -o green -i black -I green
n -t 52 -s 5 -S COLOR -c black -o black -i black -I black
n -t 52 -s 1 -S COLOR -c black -o black -i black -I black
n -t 53 -s 5 -S COLOR -c black -o black -i black -I black
n -t 53 -s 1 -S COLOR -c black -o black -i black -I black
n -t 54 -s 5 -S COLOR -c black -o black -i black -I black
n -t 54 -s 1 -S COLOR -c black -o black -i black -I black
n -t 55 -s 5 -S COLOR -c black -o black -i black -I black
n -t 55 -s 1 -S COLOR -c black -o black -i black -I black
n -t 56 -s 5 -S COLOR -c black -o black -i black -I black
n -t 56 -s 1 -S COLOR -c black -o black -i black -I black
n -t 57 -s 5 -S COLOR -c black -o black -i black -I black
n -t 57 -s 1 -S COLOR -c black -o black -i black -I black
n -t 58 -s 5 -S COLOR -c black -o black -i black -I black
n -t 58 -s 1 -S COLOR -c black -o black -i black -I black
n -t 59 -s 5 -S COLOR -c black -o black -i black -I black
n -t 59 -s 1 -S COLOR -c black -o black -i black -I black
n -t 60 -s 5 -S COLOR -c black -o black -i black -I black
n -t 60 -s 1 -S COLOR -c black -o black -i black -I black
n -t 61 -s 5 -S COLOR -c black -o black -i black -I black
n -t 61 -s 1 -S COLOR -c black -o black -i black -I black
n -t 62 -s 5 -S COLOR -c black -o black -i black -I black
n -t 62 -s 1 -S COLOR -c black -o black -i black -I black
n -t 63 -s 5 -S COLOR -c black -o black -i black -I black
n -t 63 -s 1 -S COLOR -c black -o black -i black -I black
n -t 64 -s 5 -S COLOR -c black -o black -i black -I black
n -t 64 -s 1 -S COLOR -c black -o black -i black -I black
n -t 65 -s 5 -S COLOR -c black -o black -i black -I black
n -t 65 -s 1 -S COLOR -c black -o black -i black -I black
n -t 66 -s 5 -S COLOR -c red -o black -i red -I black
n -t 66 -s 1 -S COLOR -c black -o black -i black -I black
n -t 67 -s 5 -S COLOR -c black -o red -i black -I red
n -t 67 -s 1 -S COLOR -c black -o black -i black -I black
n -t 68 -s 5 -S COLOR -c black -o black -i black -I black
n -t 68 -s 1 -S COLOR -c black -o black -i black -I black
n -t 69 -s 5 -S COLOR -c black -o black -i black -I black
n -t 69 -s 1 -S COLOR -c black -o black -i black -I black
n -t 70 -s 5 -S COLOR -c black -o black -i black -I black
n -t 70 -s 1 -S COLOR -c black -o black -i black -I black
n -t 71 -s 5 -S COLOR -c black -o black -i black -I black
n -t 71 -s 1 -S COLOR -c black -o black -i black -I black
n -t 72 -s 5 -S COLOR -c black -o black -i black -I black
n -t 72 -s 1 -S COLOR -c black -o black -i black -I black
n -t 73 -s 5 -S COLOR -c black -o black -i black -I black
n -t 73 -s 1 -S COLOR -c black -o black -i black -I black
n -t 74 -s 5 -S COLOR -c black -o black -i black -I black
n -t 74 -s 1 -S COLOR -c black -o black -i black -I black
n -t 75 -s 5 -S COLOR -c black -o black -i black -I black
n -t 75 -s 1 -S COLOR -c black -o black -i black -I black
n -t 76 -s 5 -S COLOR -c black -o black -i black -I black
n -t 76 -s 1 -S COLOR -c black -o black -i black -I black
n -t 77 -s 5 -S COLOR -c red -o black -i red -I black
n -t 77 -s 1 -S COLOR -c black -o black -i black -I black
n -t 78 -s 5 -S COLOR -c black -o red -i black -I red
n -t 78 -s 1 -S COLOR -c black -o black -i black -I black
n -t 79 -s 5 -S COLOR -c black -o black -i black -I black
n -t 79 -s 1 -S COLOR -c black -o black -i black -I black
n -t 80 -s 5 -S COLOR -c black -o black -i black -I black
n -t 80 -s 1 -S COLOR -c black -o black -i black -I black
n -t 81 -s 5 -S COLOR -c black -o black -i black -I black
n -t 81 -s 1 -S COLOR -c black -o black -i black -I black
n -t 82 -s 5 -S COLOR -c black -o black -i black -I black
n -t 82 -s 1 -S COLOR -c black -o black -i black -I black
n -t 83 -s 5 -S COLOR -c black -o black -i black -I black
n -t 83 -s 1 -S COLOR -c black -o black -i black -I black
n -t 83 -s 1 -S COLOR -c green -o black -i green -I black
n -t 84 -s 5 -S COLOR -c black -o black -i black -I black
n -t 84 -s 1 -S COLOR -c black -o green -i black -I green
n -t 84 -s 1 -S COLOR -c green -o black -i green -I black
n -t 85 -s 5 -S COLOR -c black -o black -i black -I black
n -t 85 -s 1 -S COLOR -c black -o green -i black -I green
n -t 86 -s 5 -S COLOR -c black -o black -i black -I black
n -t 86 -s 1 -S COLOR -c black -o black -i black -I black
n -t 87 -s 5 -S COLOR -c black -o black -i black -I black
n -t 87 -s 1 -S COLOR -c black -o black -i black -I black
n -t 87 -s 1 -S COLOR -c green -o black -i green -I black
n -t 88 -s 5 -S COLOR -c black -o black -i black -I black
n -t 88 -s 1 -S COLOR -c black -o green -i black -I green
n -t 89 -s 5 -S COLOR -c black -o black -i black -I black
n -t 89 -s 1 -S COLOR -c black -o black -i black -I black
n -t 89 -s 1 -S COLOR -c green -o black -i green -I black
n -t 90 -s 5 -S COLOR -c red -o black -i red -I black
n -t 90 -s 1 -S COLOR -c black -o green -i black -I green
n -t 91 -s 5 -S COLOR -c black -o red -i black -I red
n -t 91 -s 1 -S COLOR -c black -o black -i black -I black
n -t 92 -s 5 -S COLOR -c black -o black -i black -I black
n -t 92 -s 1 -S COLOR -c black -o black -i black -I black
n -t 93 -s 5 -S COLOR -c black -o black -i black -I black
n -t 93 -s 1 -S COLOR -c black -o black -i black -I black
n -t 94 -s 5 -S COLOR -c red -o black -i red -I black
n -t 94 -s 1 -S COLOR -c black -o black -i black -I black
n -t 94 -s 1 -S COLOR -c green -o black -i green -I black
n -t 95 -s 5 -S COLOR -c black -o red -i black -I red
n -t 95 -s 1 -S COLOR -c black -o green -i black -I green
n -t 95 -s 1 -S COLOR -c green -o black -i green -I black
n -t 96 -s 5 -S COLOR -c black -o black -i black -I black
n -t 96 -s 1 -S COLOR -c black -o green -i black -I green
n -t 97 -s 5 -S COLOR -c black -o black -i black -I black
n -t 97 -s 1 -S COLOR -c black -o black -i black -I black
n -t 98 -s 5 -S COLOR -c black -o black -i black -I black
n -t 98 -s 1 -S COLOR -c black -o black -i black -I black
n -t 98 -s 1 -S COLOR -c green -o black -i green -I black
n -t 99 -s 5 -S COLOR -c black -o black -i black -I black
n -t 99 -s 1 -S COLOR -c black -o green -i black -I green
