n -t * -s 0  -x 1.5149324534064776 -y 12.627296928608462 -Z 0 -z 1  -v circle -c black
n -t * -s 1  -x 1.673901980590961 -y 15.409476680406126 -Z 0 -z 1  -v circle -c black
n -t * -s 2  -x 26.048668807395114 -y 21.939268345916304 -Z 0 -z 1  -v circle -c black
n -t * -s 3  -x 18.462312136992026 -y 20.803589364887955 -Z 0 -z 1  -v circle -c black
n -t * -s 4  -x 7.1494905777040358 -y 25.870084704770747 -Z 0 -z 1  -v circle -c black
n -t * -s 5  -x 2.621429517223234 -y 17.722503360231642 -Z 0 -z 1  -v circle -c black
n -t * -s 6  -x 10.396700566819263 -y 3.0647819177549249 -Z 0 -z 1  -v circle -c black
n -t * -s 7  -x 7.1298390380711476 -y 6.1706106300328916 -Z 0 -z 1  -v circle -c black
n -t * -s 8  -x 23.384818198804194 -y 5.0863924832485585 -Z 0 -z 1  -v circle -c black
n -t * -s 9  -x 14.422370383712636 -y 25.33672765145857 -Z 0 -z 1  -v circle -c black
n -t * -s 10  -x 18.039105123858484 -y 21.214937340102594 -Z 0 -z 1  -v circle -c black
n -t * -s 11  -x 15 -y 15 -Z 0 -z 2  -v circle -c black
V -t * -v 1.0a5 -a 0
W -t * -x 30 -y 30
A -t * -n 1 -p 0 -o 0x7fffffff -c 30 -a 1
A -t * -h 1 -m 1073741823 -s 0
n -t 0 -s 11 -S COLOR -c black -o black -i black -I black
n -t 0 -s 3 -S COLOR -c black -o black -i black -I black
n -t 1 -s 11 -S COLOR -c black -o black -i black -I black
n -t 1 -s 3 -S COLOR -c black -o black -i black -I black
n -t 2 -s 11 -S COLOR -c black -o black -i black -I black
n -t 2 -s 3 -S COLOR -c black -o black -i black -I black
n -t 3 -s 11 -S COLOR -c black -o black -i black -I black
n -t 3 -s 3 -S COLOR -c black -o black -i black -I black
n -t 4 -s 11 -S COLOR -c black -o black -i black -I black
n -t 4 -s 3 -S COLOR -c black -o black -i black -I black
n -t 5 -s 11 -S COLOR -c black -o black -i black -I black
n -t 5 -s 3 -S COLOR -c black -o black -i black -I black
n -t 6 -s 11 -S COLOR -c black -o black -i black -I black
n -t 6 -s 3 -S COLOR -c black -o black -i black -I black
n -t 7 -s 11 -S COLOR -c black -o black -i black -I black
n -t 7 -s 3 -S COLOR -c black -o black -i black -I black
n -t 8 -s 11 -S COLOR -c black -o black -i black -I black
n -t 8 -s 3 -S COLOR -c black -o black -i black -I black
n -t 9 -s 11 -S COLOR -c black -o black -i black -I black
n -t 9 -s 3 -S COLOR -c black -o black -i black -I black
n -t 10 -s 11 -S COLOR -c black -o black -i black -I black
n -t 10 -s 3 -S COLOR -c black -o black -i black -I black
n -t 11 -s 11 -S COLOR -c black -o black -i black -I black
n -t 11 -s 3 -S COLOR -c black -o black -i black -I black
n -t 12 -s 11 -S COLOR -c black -o black -i black -I black
n -t 12 -s 3 -S COLOR -c black -o black -i black -I black
n -t 13 -s 11 -S COLOR -c black -o black -i black -I black
n -t 13 -s 3 -S COLOR -c black -o black -i black -I black
n -t 14 -s 11 -S COLOR -c black -o black -i black -I black
n -t 14 -s 3 -S COLOR -c black -o black -i black -I black
n -t 15 -s 11 -S COLOR -c black -o black -i black -I black
n -t 15 -s 3 -S COLOR -c black -o black -i black -I black
n -t 16 -s 11 -S COLOR -c black -o black -i black -I black
n -t 16 -s 3 -S COLOR -c black -o black -i black -I black
n -t 17 -s 11 -S COLOR -c black -o black -i black -I black
n -t 17 -s 3 -S COLOR -c black -o black -i black -I black
n -t 18 -s 11 -S COLOR -c black -o black -i black -I black
n -t 18 -s 3 -S COLOR -c black -o black -i black -I black
n -t 19 -s 11 -S COLOR -c black -o black -i black -I black
n -t 19 -s 3 -S COLOR -c black -o black -i black -I black
n -t 20 -s 11 -S COLOR -c black -o black -i black -I black
n -t 20 -s 3 -S COLOR -c black -o black -i black -I black
n -t 21 -s 11 -S COLOR -c black -o black -i black -I black
n -t 21 -s 3 -S COLOR -c black -o black -i black -I black
n -t 22 -s 11 -S COLOR -c black -o black -i black -I black
n -t 22 -s 3 -S COLOR -c black -o black -i black -I black
n -t 23 -s 11 -S COLOR -c black -o black -i black -I black
n -t 23 -s 3 -S COLOR -c black -o black -i black -I black
n -t 24 -s 11 -S COLOR -c black -o black -i black -I black
n -t 24 -s 3 -S COLOR -c black -o black -i black -I black
n -t 25 -s 11 -S COLOR -c black -o black -i black -I black
n -t 25 -s 3 -S COLOR -c black -o black -i black -I black
n -t 26 -s 11 -S COLOR -c black -o black -i black -I black
n -t 26 -s 3 -S COLOR -c black -o black -i black -I black
n -t 27 -s 11 -S COLOR -c black -o black -i black -I black
n -t 27 -s 3 -S COLOR -c black -o black -i black -I black
n -t 28 -s 11 -S COLOR -c red -o black -i red -I black
n -t 28 -s 3 -S COLOR -c black -o black -i black -I black
n -t 29 -s 11 -S COLOR -c black -o red -i black -I red
n -t 29 -s 3 -S COLOR -c black -o black -i black -I black
n -t 30 -s 11 -S COLOR -c black -o black -i black -I black
n -t 30 -s 3 -S COLOR -c black -o black -i black -I black
n -t 31 -s 11 -S COLOR -c black -o black -i black -I black
n -t 31 -s 3 -S COLOR -c black -o black -i black -I black
n -t 32 -s 11 -S COLOR -c black -o black -i black -I black
n -t 32 -s 3 -S COLOR -c black -o black -i black -I black
n -t 33 -s 11 -S COLOR -c black -o black -i black -I black
n -t 33 -s 3 -S COLOR -c black -o black -i black -I black
n -t 34 -s 11 -S COLOR -c black -o black -i black -I black
n -t 34 -s 3 -S COLOR -c black -o black -i black -I black
n -t 35 -s 11 -S COLOR -c black -o black -i black -I black
n -t 35 -s 3 -S COLOR -c black -o black -i black -I black
n -t 36 -s 11 -S COLOR -c black -o black -i black -I black
n -t 36 -s 3 -S COLOR -c black -o black -i black -I black
n -t 37 -s 11 -S COLOR -c black -o black -i black -I black
n -t 37 -s 3 -S COLOR -c black -o black -i black -I black
n -t 38 -s 11 -S COLOR -c black -o black -i black -I black
n -t 38 -s 3 -S COLOR -c black -o black -i black -I black
n -t 39 -s 11 -S COLOR -c black -o black -i black -I black
n -t 39 -s 3 -S COLOR -c black -o black -i black -I black
n -t 40 -s 11 -S COLOR -c black -o black -i black -I black
n -t 40 -s 3 -S COLOR -c black -o black -i black -I black
n -t 41 -s 11 -S COLOR -c black -o black -i black -I black
n -t 41 -s 3 -S COLOR -c black -o black -i black -I black
n -t 42 -s 11 -S COLOR -c black -o black -i black -I black
n -t 42 -s 3 -S COLOR -c black -o black -i black -I black
n -t 43 -s 11 -S COLOR -c black -o black -i black -I black
n -t 43 -s 3 -S COLOR -c black -o black -i black -I black
n -t 44 -s 11 -S COLOR -c black -o black -i black -I black
n -t 44 -s 3 -S COLOR -c black -o black -i black -I black
n -t 45 -s 11 -S COLOR -c black -o black -i black -I black
n -t 45 -s 3 -S COLOR -c black -o black -i black -I black
n -t 46 -s 11 -S COLOR -c black -o black -i black -I black
n -t 46 -s 3 -S COLOR -c black -o black -i black -I black
n -t 47 -s 11 -S COLOR -c black -o black -i black -I black
n -t 47 -s 3 -S COLOR -c black -o black -i black -I black
n -t 48 -s 11 -S COLOR -c black -o black -i black -I black
n -t 48 -s 3 -S COLOR -c black -o black -i black -I black
n -t 49 -s 11 -S COLOR -c black -o black -i black -I black
n -t 49 -s 3 -S COLOR -c black -o black -i black -I black
n -t 50 -s 11 -S COLOR -c black -o black -i black -I black
n -t 50 -s 3 -S COLOR -c black -o black -i black -I black
n -t 51 -s 11 -S COLOR -c black -o black -i black -I black
n -t 51 -s 3 -S COLOR -c black -o black -i black -I black
n -t 52 -s 11 -S COLOR -c black -o black -i black -I black
n -t 52 -s 3 -S COLOR -c black -o black -i black -I black
n -t 53 -s 11 -S COLOR -c black -o black -i black -I black
n -t 53 -s 3 -S COLOR -c black -o black -i black -I black
n -t 54 -s 11 -S COLOR -c black -o black -i black -I black
n -t 54 -s 3 -S COLOR -c black -o black -i black -I black
n -t 55 -s 11 -S COLOR -c black -o black -i black -I black
n -t 55 -s 3 -S COLOR -c black -o black -i black -I black
n -t 56 -s 11 -S COLOR -c black -o black -i black -I black
n -t 56 -s 3 -S COLOR -c black -o black -i black -I black
n -t 57 -s 11 -S COLOR -c black -o black -i black -I black
n -t 57 -s 3 -S COLOR -c black -o black -i black -I black
n -t 58 -s 11 -S COLOR -c black -o black -i black -I black
n -t 58 -s 3 -S COLOR -c black -o black -i black -I black
n -t 59 -s 11 -S COLOR -c black -o black -i black -I black
n -t 59 -s 3 -S COLOR -c black -o black -i black -I black
n -t 60 -s 11 -S COLOR -c black -o black -i black -I black
n -t 60 -s 3 -S COLOR -c black -o black -i black -I black
n -t 61 -s 11 -S COLOR -c black -o black -i black -I black
n -t 61 -s 3 -S COLOR -c black -o black -i black -I black
n -t 62 -s 11 -S COLOR -c black -o black -i black -I black
n -t 62 -s 3 -S COLOR -c black -o black -i black -I black
n -t 63 -s 11 -S COLOR -c black -o black -i black -I black
n -t 63 -s 3 -S COLOR -c black -o black -i black -I black
n -t 64 -s 11 -S COLOR -c black -o black -i black -I black
n -t 64 -s 3 -S COLOR -c black -o black -i black -I black
n -t 65 -s 11 -S COLOR -c black -o black -i black -I black
n -t 65 -s 3 -S COLOR -c black -o black -i black -I black
n -t 66 -s 11 -S COLOR -c black -o black -i black -I black
n -t 66 -s 3 -S COLOR -c black -o black -i black -I black
n -t 67 -s 11 -S COLOR -c red -o black -i red -I black
n -t 67 -s 3 -S COLOR -c black -o black -i black -I black
n -t 68 -s 11 -S COLOR -c black -o red -i black -I red
n -t 68 -s 3 -S COLOR -c black -o black -i black -I black
n -t 69 -s 11 -S COLOR -c black -o black -i black -I black
n -t 69 -s 3 -S COLOR -c black -o black -i black -I black
n -t 70 -s 11 -S COLOR -c black -o black -i black -I black
n -t 70 -s 3 -S COLOR -c black -o black -i black -I black
n -t 71 -s 11 -S COLOR -c red -o black -i red -I black
n -t 71 -s 3 -S COLOR -c black -o black -i black -I black
n -t 72 -s 11 -S COLOR -c red -o red -i red -I red
n -t 72 -s 3 -S COLOR -c black -o black -i black -I black
n -t 73 -s 11 -S COLOR -c black -o red -i black -I red
n -t 73 -s 3 -S COLOR -c black -o black -i black -I black
n -t 74 -s 11 -S COLOR -c black -o black -i black -I black
n -t 74 -s 3 -S COLOR -c black -o black -i black -I black
n -t 75 -s 11 -S COLOR -c black -o black -i black -I black
n -t 75 -s 3 -S COLOR -c black -o black -i black -I black
n -t 76 -s 11 -S COLOR -c black -o black -i black -I black
n -t 76 -s 3 -S COLOR -c black -o black -i black -I black
n -t 77 -s 11 -S COLOR -c black -o black -i black -I black
n -t 77 -s 3 -S COLOR -c black -o black -i black -I black
n -t 78 -s 11 -S COLOR -c black -o black -i black -I black
n -t 78 -s 3 -S COLOR -c black -o black -i black -I black
n -t 79 -s 11 -S COLOR -c black -o black -i black -I black
n -t 79 -s 3 -S COLOR -c black -o black -i black -I black
n -t 80 -s 11 -S COLOR -c black -o black -i black -I black
n -t 80 -s 3 -S COLOR -c black -o black -i black -I black
n -t 81 -s 11 -S COLOR -c black -o black -i black -I black
n -t 81 -s 3 -S COLOR -c black -o black -i black -I black
n -t 82 -s 11 -S COLOR -c black -o black -i black -I black
n -t 82 -s 3 -S COLOR -c black -o black -i black -I black
n -t 83 -s 11 -S COLOR -c black -o black -i black -I black
n -t 83 -s 3 -S COLOR -c black -o black -i black -I black
n -t 84 -s 11 -S COLOR -c black -o black -i black -I black
n -t 84 -s 3 -S COLOR -c black -o black -i black -I black
n -t 85 -s 11 -S COLOR -c black -o black -i black -I black
n -t 85 -s 3 -S COLOR -c black -o black -i black -I black
n -t 86 -s 11 -S COLOR -c black -o black -i black -I black
n -t 86 -s 3 -S COLOR -c black -o black -i black -I black
n -t 87 -s 11 -S COLOR -c black -o black -i black -I black
n -t 87 -s 3 -S COLOR -c black -o black -i black -I black
n -t 88 -s 11 -S COLOR -c black -o black -i black -I black
n -t 88 -s 3 -S COLOR -c black -o black -i black -I black
n -t 89 -s 11 -S COLOR -c black -o black -i black -I black
n -t 89 -s 3 -S COLOR -c black -o black -i black -I black
n -t 90 -s 11 -S COLOR -c black -o black -i black -I black
n -t 90 -s 3 -S COLOR -c black -o black -i black -I black
n -t 91 -s 11 -S COLOR -c red -o black -i red -I black
n -t 91 -s 3 -S COLOR -c black -o black -i black -I black
n -t 92 -s 11 -S COLOR -c black -o red -i black -I red
n -t 92 -s 3 -S COLOR -c black -o black -i black -I black
n -t 93 -s 11 -S COLOR -c black -o black -i black -I black
n -t 93 -s 3 -S COLOR -c black -o black -i black -I black
n -t 94 -s 11 -S COLOR -c black -o black -i black -I black
n -t 94 -s 3 -S COLOR -c black -o black -i black -I black
n -t 95 -s 11 -S COLOR -c black -o black -i black -I black
n -t 95 -s 3 -S COLOR -c black -o black -i black -I black
n -t 96 -s 11 -S COLOR -c black -o black -i black -I black
n -t 96 -s 3 -S COLOR -c black -o black -i black -I black
n -t 97 -s 11 -S COLOR -c black -o black -i black -I black
n -t 97 -s 3 -S COLOR -c black -o black -i black -I black
n -t 98 -s 11 -S COLOR -c black -o black -i black -I black
n -t 98 -s 3 -S COLOR -c black -o black -i black -I black
n -t 99 -s 11 -S COLOR -c black -o black -i black -I black
n -t 99 -s 3 -S COLOR -c black -o black -i black -I black
