n -t * -s 0  -x 2.1828762172641589 -y 10.16161830172018 -Z 0 -z 1  -v circle -c black
n -t * -s 1  -x 15.210031529520654 -y 25.602732629330237 -Z 0 -z 1  -v circle -c black
n -t * -s 2  -x 13.401832000073899 -y 4.302283937252259 -Z 0 -z 1  -v circle -c black
n -t * -s 3  -x 6.0125281456916255 -y 9.1777683604405116 -Z 0 -z 1  -v circle -c black
n -t * -s 4  -x 26.888130128797204 -y 6.1807153914965296 -Z 0 -z 1  -v circle -c black
n -t * -s 5  -x 25.631793344221911 -y 14.154222083349815 -Z 0 -z 1  -v circle -c black
n -t * -s 6  -x 18.612121501291227 -y 2.1912467909004758 -Z 0 -z 1  -v circle -c black
n -t * -s 7  -x 11.918390314988041 -y 3.5595314640363362 -Z 0 -z 1  -v circle -c black
n -t * -s 8  -x 12.228190918559298 -y 28.101413630927638 -Z 0 -z 1  -v circle -c black
n -t * -s 9  -x 15.485992895199916 -y 25.315638168396262 -Z 0 -z 1  -v circle -c black
n -t * -s 10  -x 20.14549523133109 -y 28.551533873449795 -Z 0 -z 1  -v circle -c black
n -t * -s 11  -x 15 -y 15 -Z 0 -z 2  -v circle -c black
V -t * -v 1.0a5 -a 0
W -t * -x 30 -y 30
A -t * -n 1 -p 0 -o 0x7fffffff -c 30 -a 1
A -t * -h 1 -m 1073741823 -s 0
n -t 0 -s 11 -S COLOR -c black -o black -i black -I black
n -t 0 -s 9 -S COLOR -c black -o black -i black -I black
n -t 1 -s 11 -S COLOR -c black -o black -i black -I black
n -t 1 -s 9 -S COLOR -c black -o black -i black -I black
n -t 2 -s 11 -S COLOR -c black -o black -i black -I black
n -t 2 -s 9 -S COLOR -c black -o black -i black -I black
n -t 3 -s 11 -S COLOR -c black -o black -i black -I black
n -t 3 -s 9 -S COLOR -c black -o black -i black -I black
n -t 4 -s 11 -S COLOR -c black -o black -i black -I black
n -t 4 -s 9 -S COLOR -c black -o black -i black -I black
n -t 5 -s 11 -S COLOR -c black -o black -i black -I black
n -t 5 -s 9 -S COLOR -c black -o black -i black -I black
n -t 6 -s 11 -S COLOR -c black -o black -i black -I black
n -t 6 -s 9 -S COLOR -c black -o black -i black -I black
n -t 7 -s 11 -S COLOR -c black -o black -i black -I black
n -t 7 -s 9 -S COLOR -c black -o black -i black -I black
n -t 8 -s 11 -S COLOR -c black -o black -i black -I black
n -t 8 -s 9 -S COLOR -c black -o black -i black -I black
n -t 9 -s 11 -S COLOR -c black -o black -i black -I black
n -t 9 -s 9 -S COLOR -c black -o black -i black -I black
n -t 10 -s 11 -S COLOR -c black -o black -i black -I black
n -t 10 -s 9 -S COLOR -c black -o black -i black -I black
n -t 11 -s 11 -S COLOR -c black -o black -i black -I black
n -t 11 -s 9 -S COLOR -c black -o black -i black -I black
n -t 12 -s 11 -S COLOR -c black -o black -i black -I black
n -t 12 -s 9 -S COLOR -c black -o black -i black -I black
n -t 13 -s 11 -S COLOR -c black -o black -i black -I black
n -t 13 -s 9 -S COLOR -c black -o black -i black -I black
n -t 14 -s 11 -S COLOR -c black -o black -i black -I black
n -t 14 -s 9 -S COLOR -c black -o black -i black -I black
n -t 15 -s 11 -S COLOR -c black -o black -i black -I black
n -t 15 -s 9 -S COLOR -c black -o black -i black -I black
n -t 16 -s 11 -S COLOR -c black -o black -i black -I black
n -t 16 -s 9 -S COLOR -c black -o black -i black -I black
n -t 17 -s 11 -S COLOR -c black -o black -i black -I black
n -t 17 -s 9 -S COLOR -c black -o black -i black -I black
n -t 18 -s 11 -S COLOR -c black -o black -i black -I black
n -t 18 -s 9 -S COLOR -c black -o black -i black -I black
n -t 19 -s 11 -S COLOR -c black -o black -i black -I black
n -t 19 -s 9 -S COLOR -c black -o black -i black -I black
n -t 20 -s 11 -S COLOR -c red -o black -i red -I black
n -t 20 -s 9 -S COLOR -c black -o black -i black -I black
n -t 21 -s 11 -S COLOR -c black -o red -i black -I red
n -t 21 -s 9 -S COLOR -c black -o black -i black -I black
n -t 22 -s 11 -S COLOR -c black -o black -i black -I black
n -t 22 -s 9 -S COLOR -c black -o black -i black -I black
n -t 23 -s 11 -S COLOR -c black -o black -i black -I black
n -t 23 -s 9 -S COLOR -c black -o black -i black -I black
n -t 24 -s 11 -S COLOR -c black -o black -i black -I black
n -t 24 -s 9 -S COLOR -c black -o black -i black -I black
n -t 25 -s 11 -S COLOR -c black -o black -i black -I black
n -t 25 -s 9 -S COLOR -c black -o black -i black -I black
n -t 26 -s 11 -S COLOR -c black -o black -i black -I black
n -t 26 -s 9 -S COLOR -c black -o black -i black -I black
n -t 27 -s 11 -S COLOR -c black -o black -i black -I black
n -t 27 -s 9 -S COLOR -c black -o black -i black -I black
n -t 28 -s 11 -S COLOR -c black -o black -i black -I black
n -t 28 -s 9 -S COLOR -c black -o black -i black -I black
n -t 29 -s 11 -S COLOR -c black -o black -i black -I black
n -t 29 -s 9 -S COLOR -c black -o black -i black -I black
n -t 30 -s 11 -S COLOR -c black -o black -i black -I black
n -t 30 -s 9 -S COLOR -c black -o black -i black -I black
n -t 31 -s 11 -S COLOR -c red -o black -i red -I black
n -t 31 -s 9 -S COLOR -c black -o black -i black -I black
n -t 31 -s 9 -S COLOR -c green -o black -i green -I black
n -t 32 -s 11 -S COLOR -c black -o red -i black -I red
n -t 32 -s 9 -S COLOR -c black -o green -i black -I green
n -t 33 -s 11 -S COLOR -c black -o black -i black -I black
n -t 33 -s 9 -S COLOR -c black -o black -i black -I black
n -t 34 -s 11 -S COLOR -c black -o black -i black -I black
n -t 34 -s 9 -S COLOR -c black -o black -i black -I black
n -t 35 -s 11 -S COLOR -c black -o black -i black -I black
n -t 35 -s 9 -S COLOR -c black -o black -i black -I black
n -t 36 -s 11 -S COLOR -c black -o black -i black -I black
n -t 36 -s 9 -S COLOR -c black -o black -i black -I black
n -t 37 -s 11 -S COLOR -c black -o black -i black -I black
n -t 37 -s 9 -S COLOR -c black -o black -i black -I black
n -t 38 -s 11 -S COLOR -c black -o black -i black -I black
n -t 38 -s 9 -S COLOR -c black -o black -i black -I black
n -t 39 -s 11 -S COLOR -c black -o black -i black -I black
n -t 39 -s 9 -S COLOR -c black -o black -i black -I black
n -t 40 -s 11 -S COLOR -c black -o black -i black -I black
n -t 40 -s 9 -S COLOR -c black -o black -i black -I black
n -t 41 -s 11 -S COLOR -c black -o black -i black -I black
n -t 41 -s 9 -S COLOR -c black -o black -i black -I black
n -t 42 -s 11 -S COLOR -c black -o black -i black -I black
n -t 42 -s 9 -S COLOR -c black -o black -i black -I black
n -t 43 -s 11 -S COLOR -c black -o black -i black -I black
n -t 43 -s 9 -S COLOR -c black -o black -i black -I black
n -t 44 -s 11 -S COLOR -c black -o black -i black -I black
n -t 44 -s 9 -S COLOR -c black -o black -i black -I black
n -t 45 -s 11 -S COLOR -c black -o black -i black -I black
n -t 45 -s 9 -S COLOR -c black -o black -i black -I black
n -t 46 -s 11 -S COLOR -c black -o black -i black -I black
n -t 46 -s 9 -S COLOR -c black -o black -i black -I black
n -t 47 -s 11 -S COLOR -c black -o black -i black -I black
n -t 47 -s 9 -S COLOR -c black -o black -i black -I black
n -t 48 -s 11 -S COLOR -c black -o black -i black -I black
n -t 48 -s 9 -S COLOR -c black -o black -i black -I black
n -t 49 -s 11 -S COLOR -c black -o black -i black -I black
n -t 49 -s 9 -S COLOR -c black -o black -i black -I black
n -t 50 -s 11 -S COLOR -c black -o black -i black -I black
n -t 50 -s 9 -S COLOR -c black -o black -i black -I black
n -t 51 -s 11 -S COLOR -c black -o black -i black -I black
n -t 51 -s 9 -S COLOR -c black -o black -i black -I black
n -t 52 -s 11 -S COLOR -c black -o black -i black -I black
n -t 52 -s 9 -S COLOR -c black -o black -i black -I black
n -t 53 -s 11 -S COLOR -c black -o black -i black -I black
n -t 53 -s 9 -S COLOR -c black -o black -i black -I black
n -t 54 -s 11 -S COLOR -c black -o black -i black -I black
n -t 54 -s 9 -S COLOR -c black -o black -i black -I black
n -t 55 -s 11 -S COLOR -c black -o black -i black -I black
n -t 55 -s 9 -S COLOR -c black -o black -i black -I black
n -t 56 -s 11 -S COLOR -c black -o black -i black -I black
n -t 56 -s 9 -S COLOR -c black -o black -i black -I black
n -t 57 -s 11 -S COLOR -c black -o black -i black -I black
n -t 57 -s 9 -S COLOR -c black -o black -i black -I black
n -t 58 -s 11 -S COLOR -c black -o black -i black -I black
n -t 58 -s 9 -S COLOR -c black -o black -i black -I black
n -t 59 -s 11 -S COLOR -c black -o black -i black -I black
n -t 59 -s 9 -S COLOR -c black -o black -i black -I black
n -t 60 -s 11 -S COLOR -c black -o black -i black -I black
n -t 60 -s 9 -S COLOR -c black -o black -i black -I black
n -t 61 -s 11 -S COLOR -c black -o black -i black -I black
n -t 61 -s 9 -S COLOR -c black -o black -i black -I black
n -t 62 -s 11 -S COLOR -c black -o black -i black -I black
n -t 62 -s 9 -S COLOR -c black -o black -i black -I black
n -t 63 -s 11 -S COLOR -c black -o black -i black -I black
n -t 63 -s 9 -S COLOR -c black -o black -i black -I black
n -t 64 -s 11 -S COLOR -c black -o black -i black -I black
n -t 64 -s 9 -S COLOR -c black -o black -i black -I black
n -t 65 -s 11 -S COLOR -c black -o black -i black -I black
n -t 65 -s 9 -S COLOR -c black -o black -i black -I black
n -t 66 -s 11 -S COLOR -c red -o black -i red -I black
n -t 66 -s 9 -S COLOR -c black -o black -i black -I black
n -t 66 -s 9 -S COLOR -c green -o black -i green -I black
n -t 67 -s 11 -S COLOR -c black -o red -i black -I red
n -t 67 -s 9 -S COLOR -c black -o green -i black -I green
n -t 68 -s 11 -S COLOR -c black -o black -i black -I black
n -t 68 -s 9 -S COLOR -c black -o black -i black -I black
n -t 69 -s 11 -S COLOR -c black -o black -i black -I black
n -t 69 -s 9 -S COLOR -c black -o black -i black -I black
n -t 70 -s 11 -S COLOR -c black -o black -i black -I black
n -t 70 -s 9 -S COLOR -c black -o black -i black -I black
n -t 71 -s 11 -S COLOR -c black -o black -i black -I black
n -t 71 -s 9 -S COLOR -c black -o black -i black -I black
n -t 72 -s 11 -S COLOR -c black -o black -i black -I black
n -t 72 -s 9 -S COLOR -c black -o black -i black -I black
n -t 73 -s 11 -S COLOR -c black -o black -i black -I black
n -t 73 -s 9 -S COLOR -c black -o black -i black -I black
n -t 74 -s 11 -S COLOR -c black -o black -i black -I black
n -t 74 -s 9 -S COLOR -c black -o black -i black -I black
n -t 75 -s 11 -S COLOR -c black -o black -i black -I black
n -t 75 -s 9 -S COLOR -c black -o black -i black -I black
n -t 76 -s 11 -S COLOR -c black -o black -i black -I black
n -t 76 -s 9 -S COLOR -c black -o black -i black -I black
n -t 77 -s 11 -S COLOR -c black -o black -i black -I black
n -t 77 -s 9 -S COLOR -c black -o black -i black -I black
n -t 78 -s 11 -S COLOR -c black -o black -i black -I black
n -t 78 -s 9 -S COLOR -c black -o black -i black -I black
n -t 79 -s 11 -S COLOR -c black -o black -i black -I black
n -t 79 -s 9 -S COLOR -c black -o black -i black -I black
n -t 80 -s 11 -S COLOR -c black -o black -i black -I black
n -t 80 -s 9 -S COLOR -c black -o black -i black -I black
n -t 81 -s 11 -S COLOR -c black -o black -i black -I black
n -t 81 -s 9 -S COLOR -c black -o black -i black -I black
n -t 82 -s 11 -S COLOR -c black -o black -i black -I black
n -t 82 -s 9 -S COLOR -c black -o black -i black -I black
n -t 83 -s 11 -S COLOR -c black -o black -i black -I black
n -t 83 -s 9 -S COLOR -c black -o black -i black -I black
n -t 84 -s 11 -S COLOR -c red -o black -i red -I black
n -t 84 -s 9 -S COLOR -c black -o black -i black -I black
n -t 84 -s 9 -S COLOR -c green -o black -i green -I black
n -t 85 -s 11 -S COLOR -c black -o red -i black -I red
n -t 85 -s 9 -S COLOR -c black -o green -i black -I green
n -t 86 -s 11 -S COLOR -c black -o black -i black -I black
n -t 86 -s 9 -S COLOR -c black -o black -i black -I black
n -t 87 -s 11 -S COLOR -c black -o black -i black -I black
n -t 87 -s 9 -S COLOR -c black -o black -i black -I black
n -t 88 -s 11 -S COLOR -c black -o black -i black -I black
n -t 88 -s 9 -S COLOR -c black -o black -i black -I black
n -t 89 -s 11 -S COLOR -c black -o black -i black -I black
n -t 89 -s 9 -S COLOR -c black -o black -i black -I black
n -t 90 -s 11 -S COLOR -c black -o black -i black -I black
n -t 90 -s 9 -S COLOR -c black -o black -i black -I black
n -t 91 -s 11 -S COLOR -c black -o black -i black -I black
n -t 91 -s 9 -S COLOR -c black -o black -i black -I black
n -t 92 -s 11 -S COLOR -c black -o black -i black -I black
n -t 92 -s 9 -S COLOR -c black -o black -i black -I black
n -t 93 -s 11 -S COLOR -c black -o black -i black -I black
n -t 93 -s 9 -S COLOR -c black -o black -i black -I black
n -t 94 -s 11 -S COLOR -c black -o black -i black -I black
n -t 94 -s 9 -S COLOR -c black -o black -i black -I black
n -t 95 -s 11 -S COLOR -c black -o black -i black -I black
n -t 95 -s 9 -S COLOR -c black -o black -i black -I black
n -t 96 -s 11 -S COLOR -c black -o black -i black -I black
n -t 96 -s 9 -S COLOR -c black -o black -i black -I black
n -t 97 -s 11 -S COLOR -c red -o black -i red -I black
n -t 97 -s 9 -S COLOR -c black -o black -i black -I black
n -t 97 -s 9 -S COLOR -c green -o black -i green -I black
n -t 98 -s 11 -S COLOR -c black -o red -i black -I red
n -t 98 -s 9 -S COLOR -c black -o green -i black -I green
n -t 99 -s 11 -S COLOR -c black -o black -i black -I black
n -t 99 -s 9 -S COLOR -c black -o black -i black -I black
