n -t * -s 0  -x 11.737210602377173 -y 20.993208061434892 -Z 0 -z 1  -v circle -c black
n -t * -s 1  -x 28.706231158555592 -y 13.891566458107702 -Z 0 -z 1  -v circle -c black
n -t * -s 2  -x 2.5275125133467431 -y 11.507198969604074 -Z 0 -z 1  -v circle -c black
n -t * -s 3  -x 2.6950477448734675 -y 19.10598246804717 -Z 0 -z 1  -v circle -c black
n -t * -s 4  -x 8.6686217080189945 -y 5.1538948692166686 -Z 0 -z 1  -v circle -c black
n -t * -s 5  -x 15.38151058618981 -y 21.446113847869501 -Z 0 -z 1  -v circle -c black
n -t * -s 6  -x 15 -y 15 -Z 0 -z 2  -v circle -c black
V -t * -v 1.0a5 -a 0
W -t * -x 30 -y 30
A -t * -n 1 -p 0 -o 0x7fffffff -c 30 -a 1
A -t * -h 1 -m 1073741823 -s 0
n -t 0 -s 6 -S COLOR -c black -o black -i black -I black
n -t 0 -s 5 -S COLOR -c black -o black -i black -I black
n -t 1 -s 6 -S COLOR -c black -o black -i black -I black
n -t 1 -s 5 -S COLOR -c black -o black -i black -I black
n -t 2 -s 6 -S COLOR -c black -o black -i black -I black
n -t 2 -s 5 -S COLOR -c black -o black -i black -I black
n -t 3 -s 6 -S COLOR -c black -o black -i black -I black
n -t 3 -s 5 -S COLOR -c black -o black -i black -I black
n -t 4 -s 6 -S COLOR -c black -o black -i black -I black
n -t 4 -s 5 -S COLOR -c black -o black -i black -I black
n -t 5 -s 6 -S COLOR -c black -o black -i black -I black
n -t 5 -s 5 -S COLOR -c black -o black -i black -I black
n -t 6 -s 6 -S COLOR -c black -o black -i black -I black
n -t 6 -s 5 -S COLOR -c black -o black -i black -I black
n -t 7 -s 6 -S COLOR -c black -o black -i black -I black
n -t 7 -s 5 -S COLOR -c black -o black -i black -I black
n -t 8 -s 6 -S COLOR -c black -o black -i black -I black
n -t 8 -s 5 -S COLOR -c black -o black -i black -I black
n -t 9 -s 6 -S COLOR -c black -o black -i black -I black
n -t 9 -s 5 -S COLOR -c black -o black -i black -I black
n -t 10 -s 6 -S COLOR -c black -o black -i black -I black
n -t 10 -s 5 -S COLOR -c black -o black -i black -I black
n -t 11 -s 6 -S COLOR -c black -o black -i black -I black
n -t 11 -s 5 -S COLOR -c black -o black -i black -I black
n -t 12 -s 6 -S COLOR -c black -o black -i black -I black
n -t 12 -s 5 -S COLOR -c black -o black -i black -I black
n -t 13 -s 6 -S COLOR -c black -o black -i black -I black
n -t 13 -s 5 -S COLOR -c black -o black -i black -I black
n -t 14 -s 6 -S COLOR -c black -o black -i black -I black
n -t 14 -s 5 -S COLOR -c black -o black -i black -I black
n -t 15 -s 6 -S COLOR -c black -o black -i black -I black
n -t 15 -s 5 -S COLOR -c black -o black -i black -I black
n -t 16 -s 6 -S COLOR -c black -o black -i black -I black
n -t 16 -s 5 -S COLOR -c black -o black -i black -I black
n -t 17 -s 6 -S COLOR -c black -o black -i black -I black
n -t 17 -s 5 -S COLOR -c black -o black -i black -I black
n -t 18 -s 6 -S COLOR -c black -o black -i black -I black
n -t 18 -s 5 -S COLOR -c black -o black -i black -I black
n -t 19 -s 6 -S COLOR -c black -o black -i black -I black
n -t 19 -s 5 -S COLOR -c black -o black -i black -I black
n -t 20 -s 6 -S COLOR -c black -o black -i black -I black
n -t 20 -s 5 -S COLOR -c black -o black -i black -I black
n -t 21 -s 6 -S COLOR -c black -o black -i black -I black
n -t 21 -s 5 -S COLOR -c black -o black -i black -I black
n -t 22 -s 6 -S COLOR -c black -o black -i black -I black
n -t 22 -s 5 -S COLOR -c black -o black -i black -I black
n -t 23 -s 6 -S COLOR -c black -o black -i black -I black
n -t 23 -s 5 -S COLOR -c black -o black -i black -I black
n -t 24 -s 6 -S COLOR -c black -o black -i black -I black
n -t 24 -s 5 -S COLOR -c black -o black -i black -I black
n -t 25 -s 6 -S COLOR -c black -o black -i black -I black
n -t 25 -s 5 -S COLOR -c black -o black -i black -I black
n -t 26 -s 6 -S COLOR -c black -o black -i black -I black
n -t 26 -s 5 -S COLOR -c black -o black -i black -I black
n -t 27 -s 6 -S COLOR -c black -o black -i black -I black
n -t 27 -s 5 -S COLOR -c black -o black -i black -I black
n -t 28 -s 6 -S COLOR -c black -o black -i black -I black
n -t 28 -s 5 -S COLOR -c black -o black -i black -I black
n -t 29 -s 6 -S COLOR -c black -o black -i black -I black
n -t 29 -s 5 -S COLOR -c black -o black -i black -I black
n -t 30 -s 6 -S COLOR -c black -o black -i black -I black
n -t 30 -s 5 -S COLOR -c black -o black -i black -I black
n -t 31 -s 6 -S COLOR -c black -o black -i black -I black
n -t 31 -s 5 -S COLOR -c black -o black -i black -I black
n -t 32 -s 6 -S COLOR -c black -o black -i black -I black
n -t 32 -s 5 -S COLOR -c black -o black -i black -I black
n -t 33 -s 6 -S COLOR -c black -o black -i black -I black
n -t 33 -s 5 -S COLOR -c black -o black -i black -I black
n -t 34 -s 6 -S COLOR -c black -o black -i black -I black
n -t 34 -s 5 -S COLOR -c black -o black -i black -I black
n -t 35 -s 6 -S COLOR -c black -o black -i black -I black
n -t 35 -s 5 -S COLOR -c black -o black -i black -I black
n -t 36 -s 6 -S COLOR -c black -o black -i black -I black
n -t 36 -s 5 -S COLOR -c black -o black -i black -I black
n -t 37 -s 6 -S COLOR -c black -o black -i black -I black
n -t 37 -s 5 -S COLOR -c black -o black -i black -I black
n -t 38 -s 6 -S COLOR -c black -o black -i black -I black
n -t 38 -s 5 -S COLOR -c black -o black -i black -I black
n -t 39 -s 6 -S COLOR -c black -o black -i black -I black
n -t 39 -s 5 -S COLOR -c black -o black -i black -I black
n -t 40 -s 6 -S COLOR -c black -o black -i black -I black
n -t 40 -s 5 -S COLOR -c black -o black -i black -I black
n -t 41 -s 6 -S COLOR -c black -o black -i black -I black
n -t 41 -s 5 -S COLOR -c black -o black -i black -I black
n -t 42 -s 6 -S COLOR -c black -o black -i black -I black
n -t 42 -s 5 -S COLOR -c black -o black -i black -I black
n -t 43 -s 6 -S COLOR -c black -o black -i black -I black
n -t 43 -s 5 -S COLOR -c black -o black -i black -I black
n -t 44 -s 6 -S COLOR -c black -o black -i black -I black
n -t 44 -s 5 -S COLOR -c black -o black -i black -I black
n -t 45 -s 6 -S COLOR -c black -o black -i black -I black
n -t 45 -s 5 -S COLOR -c black -o black -i black -I black
n -t 46 -s 6 -S COLOR -c black -o black -i black -I black
n -t 46 -s 5 -S COLOR -c black -o black -i black -I black
n -t 47 -s 6 -S COLOR -c black -o black -i black -I black
n -t 47 -s 5 -S COLOR -c black -o black -i black -I black
n -t 48 -s 6 -S COLOR -c black -o black -i black -I black
n -t 48 -s 5 -S COLOR -c black -o black -i black -I black
n -t 49 -s 6 -S COLOR -c black -o black -i black -I black
n -t 49 -s 5 -S COLOR -c black -o black -i black -I black
n -t 50 -s 6 -S COLOR -c black -o black -i black -I black
n -t 50 -s 5 -S COLOR -c black -o black -i black -I black
n -t 51 -s 6 -S COLOR -c black -o black -i black -I black
n -t 51 -s 5 -S COLOR -c black -o black -i black -I black
n -t 52 -s 6 -S COLOR -c black -o black -i black -I black
n -t 52 -s 5 -S COLOR -c black -o black -i black -I black
n -t 53 -s 6 -S COLOR -c black -o black -i black -I black
n -t 53 -s 5 -S COLOR -c black -o black -i black -I black
n -t 54 -s 6 -S COLOR -c black -o black -i black -I black
n -t 54 -s 5 -S COLOR -c black -o black -i black -I black
n -t 55 -s 6 -S COLOR -c black -o black -i black -I black
n -t 55 -s 5 -S COLOR -c black -o black -i black -I black
n -t 56 -s 6 -S COLOR -c black -o black -i black -I black
n -t 56 -s 5 -S COLOR -c black -o black -i black -I black
n -t 57 -s 6 -S COLOR -c red -o black -i red -I black
n -t 57 -s 5 -S COLOR -c black -o black -i black -I black
n -t 57 -s 5 -S COLOR -c green -o black -i green -I black
n -t 58 -s 6 -S COLOR -c black -o red -i black -I red
n -t 58 -s 5 -S COLOR -c black -o green -i black -I green
n -t 59 -s 6 -S COLOR -c black -o black -i black -I black
n -t 59 -s 5 -S COLOR -c black -o black -i black -I black
n -t 60 -s 6 -S COLOR -c red -o black -i red -I black
n -t 60 -s 5 -S COLOR -c black -o black -i black -I black
n -t 61 -s 6 -S COLOR -c black -o red -i black -I red
n -t 61 -s 5 -S COLOR -c black -o black -i black -I black
n -t 62 -s 6 -S COLOR -c black -o black -i black -I black
n -t 62 -s 5 -S COLOR -c black -o black -i black -I black
n -t 63 -s 6 -S COLOR -c black -o black -i black -I black
n -t 63 -s 5 -S COLOR -c black -o black -i black -I black
n -t 64 -s 6 -S COLOR -c black -o black -i black -I black
n -t 64 -s 5 -S COLOR -c black -o black -i black -I black
n -t 65 -s 6 -S COLOR -c black -o black -i black -I black
n -t 65 -s 5 -S COLOR -c black -o black -i black -I black
n -t 66 -s 6 -S COLOR -c black -o black -i black -I black
n -t 66 -s 5 -S COLOR -c black -o black -i black -I black
n -t 67 -s 6 -S COLOR -c black -o black -i black -I black
n -t 67 -s 5 -S COLOR -c black -o black -i black -I black
n -t 68 -s 6 -S COLOR -c black -o black -i black -I black
n -t 68 -s 5 -S COLOR -c black -o black -i black -I black
n -t 69 -s 6 -S COLOR -c red -o black -i red -I black
n -t 69 -s 5 -S COLOR -c black -o black -i black -I black
n -t 70 -s 6 -S COLOR -c black -o red -i black -I red
n -t 70 -s 5 -S COLOR -c black -o black -i black -I black
n -t 71 -s 6 -S COLOR -c black -o black -i black -I black
n -t 71 -s 5 -S COLOR -c black -o black -i black -I black
n -t 72 -s 6 -S COLOR -c black -o black -i black -I black
n -t 72 -s 5 -S COLOR -c black -o black -i black -I black
n -t 73 -s 6 -S COLOR -c black -o black -i black -I black
n -t 73 -s 5 -S COLOR -c black -o black -i black -I black
n -t 74 -s 6 -S COLOR -c black -o black -i black -I black
n -t 74 -s 5 -S COLOR -c black -o black -i black -I black
n -t 75 -s 6 -S COLOR -c black -o black -i black -I black
n -t 75 -s 5 -S COLOR -c black -o black -i black -I black
n -t 76 -s 6 -S COLOR -c black -o black -i black -I black
n -t 76 -s 5 -S COLOR -c black -o black -i black -I black
n -t 77 -s 6 -S COLOR -c black -o black -i black -I black
n -t 77 -s 5 -S COLOR -c black -o black -i black -I black
n -t 78 -s 6 -S COLOR -c red -o black -i red -I black
n -t 78 -s 5 -S COLOR -c black -o black -i black -I black
n -t 78 -s 5 -S COLOR -c green -o black -i green -I black
n -t 79 -s 6 -S COLOR -c black -o red -i black -I red
n -t 79 -s 5 -S COLOR -c black -o green -i black -I green
n -t 80 -s 6 -S COLOR -c black -o black -i black -I black
n -t 80 -s 5 -S COLOR -c black -o black -i black -I black
n -t 81 -s 6 -S COLOR -c red -o black -i red -I black
n -t 81 -s 5 -S COLOR -c black -o black -i black -I black
n -t 81 -s 5 -S COLOR -c green -o black -i green -I black
n -t 82 -s 6 -S COLOR -c black -o red -i black -I red
n -t 82 -s 5 -S COLOR -c black -o green -i black -I green
n -t 83 -s 6 -S COLOR -c black -o black -i black -I black
n -t 83 -s 5 -S COLOR -c black -o black -i black -I black
n -t 84 -s 6 -S COLOR -c black -o black -i black -I black
n -t 84 -s 5 -S COLOR -c black -o black -i black -I black
n -t 85 -s 6 -S COLOR -c black -o black -i black -I black
n -t 85 -s 5 -S COLOR -c black -o black -i black -I black
n -t 86 -s 6 -S COLOR -c black -o black -i black -I black
n -t 86 -s 5 -S COLOR -c black -o black -i black -I black
n -t 87 -s 6 -S COLOR -c black -o black -i black -I black
n -t 87 -s 5 -S COLOR -c black -o black -i black -I black
n -t 88 -s 6 -S COLOR -c black -o black -i black -I black
n -t 88 -s 5 -S COLOR -c black -o black -i black -I black
n -t 89 -s 6 -S COLOR -c red -o black -i red -I black
n -t 89 -s 5 -S COLOR -c black -o black -i black -I black
n -t 90 -s 6 -S COLOR -c black -o red -i black -I red
n -t 90 -s 5 -S COLOR -c black -o black -i black -I black
n -t 91 -s 6 -S COLOR -c black -o black -i black -I black
n -t 91 -s 5 -S COLOR -c black -o black -i black -I black
n -t 92 -s 6 -S COLOR -c black -o black -i black -I black
n -t 92 -s 5 -S COLOR -c black -o black -i black -I black
n -t 93 -s 6 -S COLOR -c black -o black -i black -I black
n -t 93 -s 5 -S COLOR -c black -o black -i black -I black
n -t 94 -s 6 -S COLOR -c black -o black -i black -I black
n -t 94 -s 5 -S COLOR -c black -o black -i black -I black
n -t 95 -s 6 -S COLOR -c black -o black -i black -I black
n -t 95 -s 5 -S COLOR -c black -o black -i black -I black
n -t 96 -s 6 -S COLOR -c black -o black -i black -I black
n -t 96 -s 5 -S COLOR -c black -o black -i black -I black
n -t 97 -s 6 -S COLOR -c black -o black -i black -I black
n -t 97 -s 5 -S COLOR -c black -o black -i black -I black
n -t 98 -s 6 -S COLOR -c black -o black -i black -I black
n -t 98 -s 5 -S COLOR -c black -o black -i black -I black
n -t 99 -s 6 -S COLOR -c black -o black -i black -I black
n -t 99 -s 5 -S COLOR -c black -o black -i black -I black
n -t 100 -s 6 -S COLOR -c black -o black -i black -I black
n -t 100 -s 5 -S COLOR -c black -o black -i black -I black
n -t 101 -s 6 -S COLOR -c black -o black -i black -I black
n -t 101 -s 5 -S COLOR -c black -o black -i black -I black
n -t 102 -s 6 -S COLOR -c black -o black -i black -I black
n -t 102 -s 5 -S COLOR -c black -o black -i black -I black
n -t 103 -s 6 -S COLOR -c black -o black -i black -I black
n -t 103 -s 5 -S COLOR -c black -o black -i black -I black
n -t 104 -s 6 -S COLOR -c black -o black -i black -I black
n -t 104 -s 5 -S COLOR -c black -o black -i black -I black
n -t 105 -s 6 -S COLOR -c black -o black -i black -I black
n -t 105 -s 5 -S COLOR -c black -o black -i black -I black
n -t 106 -s 6 -S COLOR -c black -o black -i black -I black
n -t 106 -s 5 -S COLOR -c black -o black -i black -I black
n -t 107 -s 6 -S COLOR -c black -o black -i black -I black
n -t 107 -s 5 -S COLOR -c black -o black -i black -I black
n -t 108 -s 6 -S COLOR -c red -o black -i red -I black
n -t 108 -s 5 -S COLOR -c black -o black -i black -I black
n -t 109 -s 6 -S COLOR -c black -o red -i black -I red
n -t 109 -s 5 -S COLOR -c black -o black -i black -I black
n -t 110 -s 6 -S COLOR -c black -o black -i black -I black
n -t 110 -s 5 -S COLOR -c black -o black -i black -I black
n -t 111 -s 6 -S COLOR -c black -o black -i black -I black
n -t 111 -s 5 -S COLOR -c black -o black -i black -I black
n -t 112 -s 6 -S COLOR -c black -o black -i black -I black
n -t 112 -s 5 -S COLOR -c black -o black -i black -I black
n -t 113 -s 6 -S COLOR -c black -o black -i black -I black
n -t 113 -s 5 -S COLOR -c black -o black -i black -I black
n -t 114 -s 6 -S COLOR -c black -o black -i black -I black
n -t 114 -s 5 -S COLOR -c black -o black -i black -I black
n -t 115 -s 6 -S COLOR -c black -o black -i black -I black
n -t 115 -s 5 -S COLOR -c black -o black -i black -I black
n -t 116 -s 6 -S COLOR -c black -o black -i black -I black
n -t 116 -s 5 -S COLOR -c black -o black -i black -I black
n -t 117 -s 6 -S COLOR -c black -o black -i black -I black
n -t 117 -s 5 -S COLOR -c black -o black -i black -I black
n -t 118 -s 6 -S COLOR -c black -o black -i black -I black
n -t 118 -s 5 -S COLOR -c black -o black -i black -I black
n -t 119 -s 6 -S COLOR -c black -o black -i black -I black
n -t 119 -s 5 -S COLOR -c black -o black -i black -I black
n -t 120 -s 6 -S COLOR -c red -o black -i red -I black
n -t 120 -s 5 -S COLOR -c black -o black -i black -I black
n -t 121 -s 6 -S COLOR -c black -o red -i black -I red
n -t 121 -s 5 -S COLOR -c black -o black -i black -I black
n -t 122 -s 6 -S COLOR -c black -o black -i black -I black
n -t 122 -s 5 -S COLOR -c black -o black -i black -I black
n -t 123 -s 6 -S COLOR -c black -o black -i black -I black
n -t 123 -s 5 -S COLOR -c black -o black -i black -I black
n -t 124 -s 6 -S COLOR -c black -o black -i black -I black
n -t 124 -s 5 -S COLOR -c black -o black -i black -I black
n -t 125 -s 6 -S COLOR -c black -o black -i black -I black
n -t 125 -s 5 -S COLOR -c black -o black -i black -I black
n -t 126 -s 6 -S COLOR -c black -o black -i black -I black
n -t 126 -s 5 -S COLOR -c black -o black -i black -I black
n -t 127 -s 6 -S COLOR -c black -o black -i black -I black
n -t 127 -s 5 -S COLOR -c black -o black -i black -I black
n -t 128 -s 6 -S COLOR -c black -o black -i black -I black
n -t 128 -s 5 -S COLOR -c black -o black -i black -I black
n -t 129 -s 6 -S COLOR -c black -o black -i black -I black
n -t 129 -s 5 -S COLOR -c black -o black -i black -I black
n -t 130 -s 6 -S COLOR -c black -o black -i black -I black
n -t 130 -s 5 -S COLOR -c black -o black -i black -I black
n -t 131 -s 6 -S COLOR -c black -o black -i black -I black
n -t 131 -s 5 -S COLOR -c black -o black -i black -I black
n -t 132 -s 6 -S COLOR -c black -o black -i black -I black
n -t 132 -s 5 -S COLOR -c black -o black -i black -I black
n -t 133 -s 6 -S COLOR -c black -o black -i black -I black
n -t 133 -s 5 -S COLOR -c black -o black -i black -I black
n -t 134 -s 6 -S COLOR -c black -o black -i black -I black
n -t 134 -s 5 -S COLOR -c black -o black -i black -I black
n -t 135 -s 6 -S COLOR -c black -o black -i black -I black
n -t 135 -s 5 -S COLOR -c black -o black -i black -I black
n -t 136 -s 6 -S COLOR -c black -o black -i black -I black
n -t 136 -s 5 -S COLOR -c black -o black -i black -I black
n -t 137 -s 6 -S COLOR -c black -o black -i black -I black
n -t 137 -s 5 -S COLOR -c black -o black -i black -I black
n -t 138 -s 6 -S COLOR -c black -o black -i black -I black
n -t 138 -s 5 -S COLOR -c black -o black -i black -I black
n -t 139 -s 6 -S COLOR -c black -o black -i black -I black
n -t 139 -s 5 -S COLOR -c black -o black -i black -I black
n -t 140 -s 6 -S COLOR -c black -o black -i black -I black
n -t 140 -s 5 -S COLOR -c black -o black -i black -I black
n -t 141 -s 6 -S COLOR -c black -o black -i black -I black
n -t 141 -s 5 -S COLOR -c black -o black -i black -I black
n -t 142 -s 6 -S COLOR -c black -o black -i black -I black
n -t 142 -s 5 -S COLOR -c black -o black -i black -I black
n -t 143 -s 6 -S COLOR -c red -o black -i red -I black
n -t 143 -s 5 -S COLOR -c black -o black -i black -I black
n -t 143 -s 5 -S COLOR -c green -o black -i green -I black
n -t 144 -s 6 -S COLOR -c black -o red -i black -I red
n -t 144 -s 5 -S COLOR -c black -o green -i black -I green
n -t 145 -s 6 -S COLOR -c black -o black -i black -I black
n -t 145 -s 5 -S COLOR -c black -o black -i black -I black
n -t 146 -s 6 -S COLOR -c black -o black -i black -I black
n -t 146 -s 5 -S COLOR -c black -o black -i black -I black
n -t 147 -s 6 -S COLOR -c black -o black -i black -I black
n -t 147 -s 5 -S COLOR -c black -o black -i black -I black
n -t 148 -s 6 -S COLOR -c black -o black -i black -I black
n -t 148 -s 5 -S COLOR -c black -o black -i black -I black
n -t 149 -s 6 -S COLOR -c black -o black -i black -I black
n -t 149 -s 5 -S COLOR -c black -o black -i black -I black
n -t 150 -s 6 -S COLOR -c black -o black -i black -I black
n -t 150 -s 5 -S COLOR -c black -o black -i black -I black
n -t 151 -s 6 -S COLOR -c black -o black -i black -I black
n -t 151 -s 5 -S COLOR -c black -o black -i black -I black
n -t 152 -s 6 -S COLOR -c black -o black -i black -I black
n -t 152 -s 5 -S COLOR -c black -o black -i black -I black
n -t 153 -s 6 -S COLOR -c black -o black -i black -I black
n -t 153 -s 5 -S COLOR -c black -o black -i black -I black
n -t 154 -s 6 -S COLOR -c black -o black -i black -I black
n -t 154 -s 5 -S COLOR -c black -o black -i black -I black
n -t 155 -s 6 -S COLOR -c black -o black -i black -I black
n -t 155 -s 5 -S COLOR -c black -o black -i black -I black
n -t 156 -s 6 -S COLOR -c black -o black -i black -I black
n -t 156 -s 5 -S COLOR -c black -o black -i black -I black
n -t 157 -s 6 -S COLOR -c black -o black -i black -I black
n -t 157 -s 5 -S COLOR -c black -o black -i black -I black
n -t 158 -s 6 -S COLOR -c black -o black -i black -I black
n -t 158 -s 5 -S COLOR -c black -o black -i black -I black
n -t 159 -s 6 -S COLOR -c black -o black -i black -I black
n -t 159 -s 5 -S COLOR -c black -o black -i black -I black
n -t 160 -s 6 -S COLOR -c black -o black -i black -I black
n -t 160 -s 5 -S COLOR -c black -o black -i black -I black
n -t 161 -s 6 -S COLOR -c black -o black -i black -I black
n -t 161 -s 5 -S COLOR -c black -o black -i black -I black
n -t 162 -s 6 -S COLOR -c black -o black -i black -I black
n -t 162 -s 5 -S COLOR -c black -o black -i black -I black
n -t 163 -s 6 -S COLOR -c red -o black -i red -I black
n -t 163 -s 5 -S COLOR -c black -o black -i black -I black
n -t 164 -s 6 -S COLOR -c black -o red -i black -I red
n -t 164 -s 5 -S COLOR -c black -o black -i black -I black
n -t 165 -s 6 -S COLOR -c black -o black -i black -I black
n -t 165 -s 5 -S COLOR -c black -o black -i black -I black
n -t 166 -s 6 -S COLOR -c black -o black -i black -I black
n -t 166 -s 5 -S COLOR -c black -o black -i black -I black
n -t 167 -s 6 -S COLOR -c black -o black -i black -I black
n -t 167 -s 5 -S COLOR -c black -o black -i black -I black
n -t 168 -s 6 -S COLOR -c black -o black -i black -I black
n -t 168 -s 5 -S COLOR -c black -o black -i black -I black
n -t 169 -s 6 -S COLOR -c black -o black -i black -I black
n -t 169 -s 5 -S COLOR -c black -o black -i black -I black
n -t 170 -s 6 -S COLOR -c black -o black -i black -I black
n -t 170 -s 5 -S COLOR -c black -o black -i black -I black
n -t 171 -s 6 -S COLOR -c black -o black -i black -I black
n -t 171 -s 5 -S COLOR -c black -o black -i black -I black
n -t 172 -s 6 -S COLOR -c black -o black -i black -I black
n -t 172 -s 5 -S COLOR -c black -o black -i black -I black
n -t 173 -s 6 -S COLOR -c black -o black -i black -I black
n -t 173 -s 5 -S COLOR -c black -o black -i black -I black
n -t 174 -s 6 -S COLOR -c black -o black -i black -I black
n -t 174 -s 5 -S COLOR -c black -o black -i black -I black
n -t 175 -s 6 -S COLOR -c black -o black -i black -I black
n -t 175 -s 5 -S COLOR -c black -o black -i black -I black
n -t 176 -s 6 -S COLOR -c black -o black -i black -I black
n -t 176 -s 5 -S COLOR -c black -o black -i black -I black
n -t 177 -s 6 -S COLOR -c black -o black -i black -I black
n -t 177 -s 5 -S COLOR -c black -o black -i black -I black
n -t 178 -s 6 -S COLOR -c black -o black -i black -I black
n -t 178 -s 5 -S COLOR -c black -o black -i black -I black
n -t 179 -s 6 -S COLOR -c black -o black -i black -I black
n -t 179 -s 5 -S COLOR -c black -o black -i black -I black
n -t 180 -s 6 -S COLOR -c red -o black -i red -I black
n -t 180 -s 5 -S COLOR -c black -o black -i black -I black
n -t 181 -s 6 -S COLOR -c black -o red -i black -I red
n -t 181 -s 5 -S COLOR -c black -o black -i black -I black
n -t 182 -s 6 -S COLOR -c black -o black -i black -I black
n -t 182 -s 5 -S COLOR -c black -o black -i black -I black
n -t 183 -s 6 -S COLOR -c black -o black -i black -I black
n -t 183 -s 5 -S COLOR -c black -o black -i black -I black
n -t 184 -s 6 -S COLOR -c black -o black -i black -I black
n -t 184 -s 5 -S COLOR -c black -o black -i black -I black
n -t 185 -s 6 -S COLOR -c black -o black -i black -I black
n -t 185 -s 5 -S COLOR -c black -o black -i black -I black
n -t 186 -s 6 -S COLOR -c black -o black -i black -I black
n -t 186 -s 5 -S COLOR -c black -o black -i black -I black
n -t 187 -s 6 -S COLOR -c black -o black -i black -I black
n -t 187 -s 5 -S COLOR -c black -o black -i black -I black
n -t 188 -s 6 -S COLOR -c black -o black -i black -I black
n -t 188 -s 5 -S COLOR -c black -o black -i black -I black
n -t 189 -s 6 -S COLOR -c black -o black -i black -I black
n -t 189 -s 5 -S COLOR -c black -o black -i black -I black
n -t 190 -s 6 -S COLOR -c black -o black -i black -I black
n -t 190 -s 5 -S COLOR -c black -o black -i black -I black
n -t 191 -s 6 -S COLOR -c black -o black -i black -I black
n -t 191 -s 5 -S COLOR -c black -o black -i black -I black
n -t 192 -s 6 -S COLOR -c black -o black -i black -I black
n -t 192 -s 5 -S COLOR -c black -o black -i black -I black
n -t 193 -s 6 -S COLOR -c black -o black -i black -I black
n -t 193 -s 5 -S COLOR -c black -o black -i black -I black
n -t 194 -s 6 -S COLOR -c black -o black -i black -I black
n -t 194 -s 5 -S COLOR -c black -o black -i black -I black
n -t 195 -s 6 -S COLOR -c black -o black -i black -I black
n -t 195 -s 5 -S COLOR -c black -o black -i black -I black
n -t 196 -s 6 -S COLOR -c black -o black -i black -I black
n -t 196 -s 5 -S COLOR -c black -o black -i black -I black
n -t 197 -s 6 -S COLOR -c black -o black -i black -I black
n -t 197 -s 5 -S COLOR -c black -o black -i black -I black
n -t 198 -s 6 -S COLOR -c black -o black -i black -I black
n -t 198 -s 5 -S COLOR -c black -o black -i black -I black
n -t 199 -s 6 -S COLOR -c black -o black -i black -I black
n -t 199 -s 5 -S COLOR -c black -o black -i black -I black
n -t 200 -s 6 -S COLOR -c black -o black -i black -I black
n -t 200 -s 5 -S COLOR -c black -o black -i black -I black
n -t 201 -s 6 -S COLOR -c black -o black -i black -I black
n -t 201 -s 5 -S COLOR -c black -o black -i black -I black
n -t 202 -s 6 -S COLOR -c black -o black -i black -I black
n -t 202 -s 5 -S COLOR -c black -o black -i black -I black
n -t 203 -s 6 -S COLOR -c black -o black -i black -I black
n -t 203 -s 5 -S COLOR -c black -o black -i black -I black
n -t 204 -s 6 -S COLOR -c black -o black -i black -I black
n -t 204 -s 5 -S COLOR -c black -o black -i black -I black
n -t 205 -s 6 -S COLOR -c black -o black -i black -I black
n -t 205 -s 5 -S COLOR -c black -o black -i black -I black
n -t 206 -s 6 -S COLOR -c black -o black -i black -I black
n -t 206 -s 5 -S COLOR -c black -o black -i black -I black
n -t 207 -s 6 -S COLOR -c black -o black -i black -I black
n -t 207 -s 5 -S COLOR -c black -o black -i black -I black
n -t 208 -s 6 -S COLOR -c black -o black -i black -I black
n -t 208 -s 5 -S COLOR -c black -o black -i black -I black
n -t 209 -s 6 -S COLOR -c black -o black -i black -I black
n -t 209 -s 5 -S COLOR -c black -o black -i black -I black
n -t 210 -s 6 -S COLOR -c black -o black -i black -I black
n -t 210 -s 5 -S COLOR -c black -o black -i black -I black
n -t 211 -s 6 -S COLOR -c black -o black -i black -I black
n -t 211 -s 5 -S COLOR -c black -o black -i black -I black
n -t 212 -s 6 -S COLOR -c black -o black -i black -I black
n -t 212 -s 5 -S COLOR -c black -o black -i black -I black
n -t 213 -s 6 -S COLOR -c black -o black -i black -I black
n -t 213 -s 5 -S COLOR -c black -o black -i black -I black
n -t 214 -s 6 -S COLOR -c black -o black -i black -I black
n -t 214 -s 5 -S COLOR -c black -o black -i black -I black
n -t 215 -s 6 -S COLOR -c black -o black -i black -I black
n -t 215 -s 5 -S COLOR -c black -o black -i black -I black
n -t 216 -s 6 -S COLOR -c black -o black -i black -I black
n -t 216 -s 5 -S COLOR -c black -o black -i black -I black
n -t 217 -s 6 -S COLOR -c black -o black -i black -I black
n -t 217 -s 5 -S COLOR -c black -o black -i black -I black
n -t 218 -s 6 -S COLOR -c black -o black -i black -I black
n -t 218 -s 5 -S COLOR -c black -o black -i black -I black
n -t 219 -s 6 -S COLOR -c black -o black -i black -I black
n -t 219 -s 5 -S COLOR -c black -o black -i black -I black
n -t 220 -s 6 -S COLOR -c black -o black -i black -I black
n -t 220 -s 5 -S COLOR -c black -o black -i black -I black
n -t 221 -s 6 -S COLOR -c black -o black -i black -I black
n -t 221 -s 5 -S COLOR -c black -o black -i black -I black
n -t 222 -s 6 -S COLOR -c black -o black -i black -I black
n -t 222 -s 5 -S COLOR -c black -o black -i black -I black
n -t 223 -s 6 -S COLOR -c black -o black -i black -I black
n -t 223 -s 5 -S COLOR -c black -o black -i black -I black
n -t 224 -s 6 -S COLOR -c black -o black -i black -I black
n -t 224 -s 5 -S COLOR -c black -o black -i black -I black
n -t 225 -s 6 -S COLOR -c black -o black -i black -I black
n -t 225 -s 5 -S COLOR -c black -o black -i black -I black
n -t 226 -s 6 -S COLOR -c black -o black -i black -I black
n -t 226 -s 5 -S COLOR -c black -o black -i black -I black
n -t 227 -s 6 -S COLOR -c black -o black -i black -I black
n -t 227 -s 5 -S COLOR -c black -o black -i black -I black
n -t 228 -s 6 -S COLOR -c red -o black -i red -I black
n -t 228 -s 5 -S COLOR -c black -o black -i black -I black
n -t 229 -s 6 -S COLOR -c black -o red -i black -I red
n -t 229 -s 5 -S COLOR -c black -o black -i black -I black
n -t 230 -s 6 -S COLOR -c black -o black -i black -I black
n -t 230 -s 5 -S COLOR -c black -o black -i black -I black
n -t 231 -s 6 -S COLOR -c black -o black -i black -I black
n -t 231 -s 5 -S COLOR -c black -o black -i black -I black
n -t 232 -s 6 -S COLOR -c black -o black -i black -I black
n -t 232 -s 5 -S COLOR -c black -o black -i black -I black
n -t 233 -s 6 -S COLOR -c black -o black -i black -I black
n -t 233 -s 5 -S COLOR -c black -o black -i black -I black
n -t 234 -s 6 -S COLOR -c black -o black -i black -I black
n -t 234 -s 5 -S COLOR -c black -o black -i black -I black
n -t 235 -s 6 -S COLOR -c black -o black -i black -I black
n -t 235 -s 5 -S COLOR -c black -o black -i black -I black
n -t 236 -s 6 -S COLOR -c red -o black -i red -I black
n -t 236 -s 5 -S COLOR -c black -o black -i black -I black
n -t 236 -s 5 -S COLOR -c green -o black -i green -I black
n -t 237 -s 6 -S COLOR -c black -o red -i black -I red
n -t 237 -s 5 -S COLOR -c black -o green -i black -I green
n -t 238 -s 6 -S COLOR -c black -o black -i black -I black
n -t 238 -s 5 -S COLOR -c black -o black -i black -I black
n -t 239 -s 6 -S COLOR -c black -o black -i black -I black
n -t 239 -s 5 -S COLOR -c black -o black -i black -I black
n -t 240 -s 6 -S COLOR -c black -o black -i black -I black
n -t 240 -s 5 -S COLOR -c black -o black -i black -I black
n -t 241 -s 6 -S COLOR -c black -o black -i black -I black
n -t 241 -s 5 -S COLOR -c black -o black -i black -I black
n -t 242 -s 6 -S COLOR -c black -o black -i black -I black
n -t 242 -s 5 -S COLOR -c black -o black -i black -I black
n -t 243 -s 6 -S COLOR -c black -o black -i black -I black
n -t 243 -s 5 -S COLOR -c black -o black -i black -I black
n -t 244 -s 6 -S COLOR -c black -o black -i black -I black
n -t 244 -s 5 -S COLOR -c black -o black -i black -I black
n -t 245 -s 6 -S COLOR -c black -o black -i black -I black
n -t 245 -s 5 -S COLOR -c black -o black -i black -I black
n -t 246 -s 6 -S COLOR -c black -o black -i black -I black
n -t 246 -s 5 -S COLOR -c black -o black -i black -I black
n -t 247 -s 6 -S COLOR -c black -o black -i black -I black
n -t 247 -s 5 -S COLOR -c black -o black -i black -I black
n -t 248 -s 6 -S COLOR -c black -o black -i black -I black