n -t * -s 0  -x 13.103312362499215 -y 21.743946029685411 -Z 0 -z 1  -v circle -c black
n -t * -s 1  -x 21.713474067725929 -y 5.6210601449110831 -Z 0 -z 1  -v circle -c black
n -t * -s 2  -x 10.804473380932805 -y 21.327628060862249 -Z 0 -z 1  -v circle -c black
n -t * -s 3  -x 2.0562098045163832 -y 15.426735899144195 -Z 0 -z 1  -v circle -c black
n -t * -s 4  -x 12.501870869892588 -y 1.6762512185034582 -Z 0 -z 1  -v circle -c black
n -t * -s 5  -x 15.620159714305849 -y 26.195464192980651 -Z 0 -z 1  -v circle -c black
n -t * -s 6  -x 20.220092395423023 -y 1.5362442385108417 -Z 0 -z 1  -v circle -c black
n -t * -s 7  -x 8.2067651386404243 -y 14.793024582226305 -Z 0 -z 1  -v circle -c black
n -t * -s 8  -x 24.4864870349348 -y 19.141388996104425 -Z 0 -z 1  -v circle -c black
n -t * -s 9  -x 6.1271173675205173 -y 12.207282624303961 -Z 0 -z 1  -v circle -c black
n -t * -s 10  -x 1.0167725202705584 -y 16.321811259874057 -Z 0 -z 1  -v circle -c black
n -t * -s 11  -x 15 -y 15 -Z 0 -z 2  -v circle -c black
V -t * -v 1.0a5 -a 0
W -t * -x 30 -y 30
A -t * -n 1 -p 0 -o 0x7fffffff -c 30 -a 1
A -t * -h 1 -m 1073741823 -s 0
n -t 0 -s 11 -S COLOR -c black -o black -i black -I black
n -t 0 -s 7 -S COLOR -c black -o black -i black -I black
n -t 1 -s 11 -S COLOR -c black -o black -i black -I black
n -t 1 -s 7 -S COLOR -c black -o black -i black -I black
n -t 2 -s 11 -S COLOR -c black -o black -i black -I black
n -t 2 -s 7 -S COLOR -c black -o black -i black -I black
n -t 3 -s 11 -S COLOR -c black -o black -i black -I black
n -t 3 -s 7 -S COLOR -c black -o black -i black -I black
n -t 4 -s 11 -S COLOR -c black -o black -i black -I black
n -t 4 -s 7 -S COLOR -c black -o black -i black -I black
n -t 5 -s 11 -S COLOR -c red -o black -i red -I black
n -t 5 -s 7 -S COLOR -c black -o black -i black -I black
n -t 5 -s 7 -S COLOR -c green -o black -i green -I black
n -t 6 -s 11 -S COLOR -c black -o red -i black -I red
n -t 6 -s 7 -S COLOR -c black -o green -i black -I green
n -t 7 -s 11 -S COLOR -c black -o black -i black -I black
n -t 7 -s 7 -S COLOR -c black -o black -i black -I black
n -t 8 -s 11 -S COLOR -c black -o black -i black -I black
n -t 8 -s 7 -S COLOR -c black -o black -i black -I black
n -t 9 -s 11 -S COLOR -c black -o black -i black -I black
n -t 9 -s 7 -S COLOR -c black -o black -i black -I black
n -t 10 -s 11 -S COLOR -c black -o black -i black -I black
n -t 10 -s 7 -S COLOR -c black -o black -i black -I black
n -t 11 -s 11 -S COLOR -c black -o black -i black -I black
n -t 11 -s 7 -S COLOR -c black -o black -i black -I black
n -t 12 -s 11 -S COLOR -c black -o black -i black -I black
n -t 12 -s 7 -S COLOR -c black -o black -i black -I black
n -t 13 -s 11 -S COLOR -c black -o black -i black -I black
n -t 13 -s 7 -S COLOR -c black -o black -i black -I black
n -t 14 -s 11 -S COLOR -c black -o black -i black -I black
n -t 14 -s 7 -S COLOR -c black -o black -i black -I black
n -t 15 -s 11 -S COLOR -c black -o black -i black -I black
n -t 15 -s 7 -S COLOR -c black -o black -i black -I black
n -t 16 -s 11 -S COLOR -c black -o black -i black -I black
n -t 16 -s 7 -S COLOR -c black -o black -i black -I black
n -t 17 -s 11 -S COLOR -c black -o black -i black -I black
n -t 17 -s 7 -S COLOR -c black -o black -i black -I black
n -t 18 -s 11 -S COLOR -c black -o black -i black -I black
n -t 18 -s 7 -S COLOR -c black -o black -i black -I black
n -t 19 -s 11 -S COLOR -c black -o black -i black -I black
n -t 19 -s 7 -S COLOR -c black -o black -i black -I black
n -t 20 -s 11 -S COLOR -c black -o black -i black -I black
n -t 20 -s 7 -S COLOR -c black -o black -i black -I black
n -t 21 -s 11 -S COLOR -c black -o black -i black -I black
n -t 21 -s 7 -S COLOR -c black -o black -i black -I black
n -t 22 -s 11 -S COLOR -c black -o black -i black -I black
n -t 22 -s 7 -S COLOR -c black -o black -i black -I black
n -t 23 -s 11 -S COLOR -c black -o black -i black -I black
n -t 23 -s 7 -S COLOR -c black -o black -i black -I black
n -t 24 -s 11 -S COLOR -c black -o black -i black -I black
n -t 24 -s 7 -S COLOR -c black -o black -i black -I black
n -t 25 -s 11 -S COLOR -c black -o black -i black -I black
n -t 25 -s 7 -S COLOR -c black -o black -i black -I black
n -t 26 -s 11 -S COLOR -c black -o black -i black -I black
n -t 26 -s 7 -S COLOR -c black -o black -i black -I black
n -t 27 -s 11 -S COLOR -c black -o black -i black -I black
n -t 27 -s 7 -S COLOR -c black -o black -i black -I black
n -t 28 -s 11 -S COLOR -c black -o black -i black -I black
n -t 28 -s 7 -S COLOR -c black -o black -i black -I black
n -t 29 -s 11 -S COLOR -c black -o black -i black -I black
n -t 29 -s 7 -S COLOR -c black -o black -i black -I black
n -t 30 -s 11 -S COLOR -c black -o black -i black -I black
n -t 30 -s 7 -S COLOR -c black -o black -i black -I black
n -t 31 -s 11 -S COLOR -c black -o black -i black -I black
n -t 31 -s 7 -S COLOR -c black -o black -i black -I black
n -t 32 -s 11 -S COLOR -c black -o black -i black -I black
n -t 32 -s 7 -S COLOR -c black -o black -i black -I black
n -t 33 -s 11 -S COLOR -c black -o black -i black -I black
n -t 33 -s 7 -S COLOR -c black -o black -i black -I black
n -t 34 -s 11 -S COLOR -c black -o black -i black -I black
n -t 34 -s 7 -S COLOR -c black -o black -i black -I black
n -t 35 -s 11 -S COLOR -c black -o black -i black -I black
n -t 35 -s 7 -S COLOR -c black -o black -i black -I black
n -t 36 -s 11 -S COLOR -c black -o black -i black -I black
n -t 36 -s 7 -S COLOR -c black -o black -i black -I black
n -t 37 -s 11 -S COLOR -c black -o black -i black -I black
n -t 37 -s 7 -S COLOR -c black -o black -i black -I black
n -t 38 -s 11 -S COLOR -c black -o black -i black -I black
n -t 38 -s 7 -S COLOR -c black -o black -i black -I black
n -t 39 -s 11 -S COLOR -c black -o black -i black -I black
n -t 39 -s 7 -S COLOR -c black -o black -i black -I black
n -t 40 -s 11 -S COLOR -c black -o black -i black -I black
n -t 40 -s 7 -S COLOR -c black -o black -i black -I black
n -t 41 -s 11 -S COLOR -c black -o black -i black -I black
n -t 41 -s 7 -S COLOR -c black -o black -i black -I black
n -t 42 -s 11 -S COLOR -c black -o black -i black -I black
n -t 42 -s 7 -S COLOR -c black -o black -i black -I black
n -t 43 -s 11 -S COLOR -c black -o black -i black -I black
n -t 43 -s 7 -S COLOR -c black -o black -i black -I black
n -t 44 -s 11 -S COLOR -c red -o black -i red -I black
n -t 44 -s 7 -S COLOR -c black -o black -i black -I black
n -t 45 -s 11 -S COLOR -c black -o red -i black -I red
n -t 45 -s 7 -S COLOR -c black -o black -i black -I black
n -t 46 -s 11 -S COLOR -c black -o black -i black -I black
n -t 46 -s 7 -S COLOR -c black -o black -i black -I black
n -t 47 -s 11 -S COLOR -c black -o black -i black -I black
n -t 47 -s 7 -S COLOR -c black -o black -i black -I black
n -t 48 -s 11 -S COLOR -c red -o black -i red -I black
n -t 48 -s 7 -S COLOR -c black -o black -i black -I black
n -t 48 -s 7 -S COLOR -c green -o black -i green -I black
n -t 49 -s 11 -S COLOR -c black -o red -i black -I red
n -t 49 -s 7 -S COLOR -c black -o green -i black -I green
n -t 50 -s 11 -S COLOR -c black -o black -i black -I black
n -t 50 -s 7 -S COLOR -c black -o black -i black -I black
n -t 51 -s 11 -S COLOR -c black -o black -i black -I black
n -t 51 -s 7 -S COLOR -c black -o black -i black -I black
n -t 52 -s 11 -S COLOR -c black -o black -i black -I black
n -t 52 -s 7 -S COLOR -c black -o black -i black -I black
n -t 53 -s 11 -S COLOR -c black -o black -i black -I black
n -t 53 -s 7 -S COLOR -c black -o black -i black -I black
n -t 54 -s 11 -S COLOR -c black -o black -i black -I black
n -t 54 -s 7 -S COLOR -c black -o black -i black -I black
n -t 55 -s 11 -S COLOR -c black -o black -i black -I black
n -t 55 -s 7 -S COLOR -c black -o black -i black -I black
n -t 56 -s 11 -S COLOR -c black -o black -i black -I black
n -t 56 -s 7 -S COLOR -c black -o black -i black -I black
n -t 57 -s 11 -S COLOR -c black -o black -i black -I black
n -t 57 -s 7 -S COLOR -c black -o black -i black -I black
n -t 58 -s 11 -S COLOR -c black -o black -i black -I black
n -t 58 -s 7 -S COLOR -c black -o black -i black -I black
n -t 59 -s 11 -S COLOR -c black -o black -i black -I black
n -t 59 -s 7 -S COLOR -c black -o black -i black -I black
n -t 60 -s 11 -S COLOR -c black -o black -i black -I black
n -t 60 -s 7 -S COLOR -c black -o black -i black -I black
n -t 61 -s 11 -S COLOR -c black -o black -i black -I black
n -t 61 -s 7 -S COLOR -c black -o black -i black -I black
n -t 62 -s 11 -S COLOR -c black -o black -i black -I black
n -t 62 -s 7 -S COLOR -c black -o black -i black -I black
n -t 63 -s 11 -S COLOR -c black -o black -i black -I black
n -t 63 -s 7 -S COLOR -c black -o black -i black -I black
n -t 64 -s 11 -S COLOR -c black -o black -i black -I black
n -t 64 -s 7 -S COLOR -c black -o black -i black -I black
n -t 65 -s 11 -S COLOR -c black -o black -i black -I black
n -t 65 -s 7 -S COLOR -c black -o black -i black -I black
n -t 66 -s 11 -S COLOR -c black -o black -i black -I black
n -t 66 -s 7 -S COLOR -c black -o black -i black -I black
n -t 67 -s 11 -S COLOR -c black -o black -i black -I black
n -t 67 -s 7 -S COLOR -c black -o black -i black -I black
n -t 68 -s 11 -S COLOR -c black -o black -i black -I black
n -t 68 -s 7 -S COLOR -c black -o black -i black -I black
n -t 69 -s 11 -S COLOR -c black -o black -i black -I black
n -t 69 -s 7 -S COLOR -c black -o black -i black -I black
n -t 70 -s 11 -S COLOR -c black -o black -i black -I black
n -t 70 -s 7 -S COLOR -c black -o black -i black -I black
n -t 71 -s 11 -S COLOR -c black -o black -i black -I black
n -t 71 -s 7 -S COLOR -c black -o black -i black -I black
n -t 72 -s 11 -S COLOR -c black -o black -i black -I black
n -t 72 -s 7 -S COLOR -c black -o black -i black -I black
n -t 73 -s 11 -S COLOR -c black -o black -i black -I black
n -t 73 -s 7 -S COLOR -c black -o black -i black -I black
n -t 74 -s 11 -S COLOR -c black -o black -i black -I black
n -t 74 -s 7 -S COLOR -c black -o black -i black -I black
n -t 75 -s 11 -S COLOR -c black -o black -i black -I black
n -t 75 -s 7 -S COLOR -c black -o black -i black -I black
n -t 76 -s 11 -S COLOR -c black -o black -i black -I black
n -t 76 -s 7 -S COLOR -c black -o black -i black -I black
n -t 77 -s 11 -S COLOR -c black -o black -i black -I black
n -t 77 -s 7 -S COLOR -c black -o black -i black -I black
n -t 78 -s 11 -S COLOR -c red -o black -i red -I black
n -t 78 -s 7 -S COLOR -c black -o black -i black -I black
n -t 78 -s 7 -S COLOR -c green -o black -i green -I black
n -t 79 -s 11 -S COLOR -c black -o red -i black -I red
n -t 79 -s 7 -S COLOR -c black -o green -i black -I green
n -t 80 -s 11 -S COLOR -c black -o black -i black -I black
n -t 80 -s 7 -S COLOR -c black -o black -i black -I black
n -t 81 -s 11 -S COLOR -c black -o black -i black -I black
n -t 81 -s 7 -S COLOR -c black -o black -i black -I black
n -t 82 -s 11 -S COLOR -c black -o black -i black -I black
n -t 82 -s 7 -S COLOR -c black -o black -i black -I black
n -t 83 -s 11 -S COLOR -c black -o black -i black -I black
n -t 83 -s 7 -S COLOR -c black -o black -i black -I black
n -t 84 -s 11 -S COLOR -c black -o black -i black -I black
n -t 84 -s 7 -S COLOR -c black -o black -i black -I black
n -t 85 -s 11 -S COLOR -c black -o black -i black -I black
n -t 85 -s 7 -S COLOR -c black -o black -i black -I black
n -t 86 -s 11 -S COLOR -c black -o black -i black -I black
n -t 86 -s 7 -S COLOR -c black -o black -i black -I black
n -t 87 -s 11 -S COLOR -c black -o black -i black -I black
n -t 87 -s 7 -S COLOR -c black -o black -i black -I black
n -t 88 -s 11 -S COLOR -c red -o black -i red -I black
n -t 88 -s 7 -S COLOR -c black -o black -i black -I black
n -t 88 -s 7 -S COLOR -c green -o black -i green -I black
n -t 89 -s 11 -S COLOR -c black -o red -i black -I red
n -t 89 -s 7 -S COLOR -c black -o green -i black -I green
n -t 90 -s 11 -S COLOR -c black -o black -i black -I black
n -t 90 -s 7 -S COLOR -c black -o black -i black -I black
n -t 91 -s 11 -S COLOR -c black -o black -i black -I black
n -t 91 -s 7 -S COLOR -c black -o black -i black -I black
n -t 92 -s 11 -S COLOR -c black -o black -i black -I black
n -t 92 -s 7 -S COLOR -c black -o black -i black -I black
n -t 93 -s 11 -S COLOR -c black -o black -i black -I black
n -t 93 -s 7 -S COLOR -c black -o black -i black -I black
n -t 94 -s 11 -S COLOR -c black -o black -i black -I black
n -t 94 -s 7 -S COLOR -c black -o black -i black -I black
n -t 95 -s 11 -S COLOR -c black -o black -i black -I black
n -t 95 -s 7 -S COLOR -c black -o black -i black -I black
n -t 96 -s 11 -S COLOR -c black -o black -i black -I black
n -t 96 -s 7 -S COLOR -c black -o black -i black -I black
n -t 97 -s 11 -S COLOR -c black -o black -i black -I black
n -t 97 -s 7 -S COLOR -c black -o black -i black -I black
n -t 98 -s 11 -S COLOR -c black -o black -i black -I black
n -t 98 -s 7 -S COLOR -c black -o black -i black -I black
n -t 99 -s 11 -S COLOR -c black -o black -i black -I black
n -t 99 -s 7 -S COLOR -c black -o black -i black -I black
