n -t * -s 0  -x 15.434556228776721 -y 10.30864938642301 -Z 0 -z 1  -v circle -c black
n -t * -s 1  -x 12.267024317880638 -y 23.796587210985173 -Z 0 -z 1  -v circle -c black
n -t * -s 2  -x 14.410788172115938 -y 20.142118805154283 -Z 0 -z 1  -v circle -c black
n -t * -s 3  -x 12.721234118901767 -y 11.141019925075128 -Z 0 -z 1  -v circle -c black
n -t * -s 4  -x 18.39234308264793 -y 27.016920934904796 -Z 0 -z 1  -v circle -c black
n -t * -s 5  -x 15 -y 15 -Z 0 -z 2  -v circle -c black
V -t * -v 1.0a5 -a 0
W -t * -x 30 -y 30
A -t * -n 1 -p 0 -o 0x7fffffff -c 30 -a 1
A -t * -h 1 -m 1073741823 -s 0
n -t 0 -s 5 -S COLOR -c black -o black -i black -I black
n -t 0 -s 0 -S COLOR -c black -o black -i black -I black
n -t 0 -s 1 -S COLOR -c black -o black -i black -I black
n -t 0 -s 2 -S COLOR -c black -o black -i black -I black
n -t 0 -s 3 -S COLOR -c black -o black -i black -I black
n -t 0 -s 4 -S COLOR -c black -o black -i black -I black
n -t 1 -s 5 -S COLOR -c black -o black -i black -I black
n -t 1 -s 0 -S COLOR -c black -o black -i black -I black
n -t 1 -s 1 -S COLOR -c black -o black -i black -I black
n -t 1 -s 2 -S COLOR -c black -o black -i black -I black
n -t 1 -s 3 -S COLOR -c black -o black -i black -I black
n -t 1 -s 4 -S COLOR -c black -o black -i black -I black
n -t 2 -s 5 -S COLOR -c black -o black -i black -I black
n -t 2 -s 0 -S COLOR -c black -o black -i black -I black
n -t 2 -s 1 -S COLOR -c black -o black -i black -I black
n -t 2 -s 2 -S COLOR -c black -o black -i black -I black
n -t 2 -s 3 -S COLOR -c black -o black -i black -I black
n -t 2 -s 4 -S COLOR -c black -o black -i black -I black
n -t 3 -s 5 -S COLOR -c black -o black -i black -I black
n -t 3 -s 0 -S COLOR -c black -o black -i black -I black
n -t 3 -s 1 -S COLOR -c black -o black -i black -I black
n -t 3 -s 2 -S COLOR -c black -o black -i black -I black
n -t 3 -s 3 -S COLOR -c black -o black -i black -I black
n -t 3 -s 4 -S COLOR -c black -o black -i black -I black
n -t 4 -s 5 -S COLOR -c black -o black -i black -I black
n -t 4 -s 0 -S COLOR -c black -o black -i black -I black
n -t 4 -s 1 -S COLOR -c black -o black -i black -I black
n -t 4 -s 2 -S COLOR -c black -o black -i black -I black
n -t 4 -s 3 -S COLOR -c black -o black -i black -I black
n -t 4 -s 4 -S COLOR -c black -o black -i black -I black
n -t 5 -s 5 -S COLOR -c black -o black -i black -I black
n -t 5 -s 0 -S COLOR -c black -o black -i black -I black
n -t 5 -s 1 -S COLOR -c black -o black -i black -I black
n -t 5 -s 2 -S COLOR -c black -o black -i black -I black
n -t 5 -s 3 -S COLOR -c black -o black -i black -I black
n -t 5 -s 4 -S COLOR -c black -o black -i black -I black
n -t 6 -s 5 -S COLOR -c black -o black -i black -I black
n -t 6 -s 0 -S COLOR -c black -o black -i black -I black
n -t 6 -s 1 -S COLOR -c black -o black -i black -I black
n -t 6 -s 2 -S COLOR -c black -o black -i black -I black
n -t 6 -s 3 -S COLOR -c black -o black -i black -I black
n -t 6 -s 4 -S COLOR -c black -o black -i black -I black
n -t 7 -s 5 -S COLOR -c black -o black -i black -I black
n -t 7 -s 0 -S COLOR -c black -o black -i black -I black
n -t 7 -s 1 -S COLOR -c black -o black -i black -I black
n -t 7 -s 2 -S COLOR -c black -o black -i black -I black
n -t 7 -s 3 -S COLOR -c black -o black -i black -I black
n -t 7 -s 4 -S COLOR -c black -o black -i black -I black
n -t 8 -s 5 -S COLOR -c black -o black -i black -I black
n -t 8 -s 0 -S COLOR -c black -o black -i black -I black
n -t 8 -s 1 -S COLOR -c black -o black -i black -I black
n -t 8 -s 2 -S COLOR -c black -o black -i black -I black
n -t 8 -s 3 -S COLOR -c black -o black -i black -I black
n -t 8 -s 4 -S COLOR -c black -o black -i black -I black
n -t 9 -s 5 -S COLOR -c black -o black -i black -I black
n -t 9 -s 0 -S COLOR -c black -o black -i black -I black
n -t 9 -s 1 -S COLOR -c black -o black -i black -I black
n -t 9 -s 2 -S COLOR -c black -o black -i black -I black
n -t 9 -s 3 -S COLOR -c black -o black -i black -I black
n -t 9 -s 4 -S COLOR -c black -o black -i black -I black
n -t 10 -s 5 -S COLOR -c black -o black -i black -I black
n -t 10 -s 0 -S COLOR -c black -o black -i black -I black
n -t 10 -s 1 -S COLOR -c black -o black -i black -I black
n -t 10 -s 2 -S COLOR -c black -o black -i black -I black
n -t 10 -s 3 -S COLOR -c black -o black -i black -I black
n -t 10 -s 4 -S COLOR -c black -o black -i black -I black
n -t 11 -s 5 -S COLOR -c black -o black -i black -I black
n -t 11 -s 0 -S COLOR -c black -o black -i black -I black
n -t 11 -s 1 -S COLOR -c black -o black -i black -I black
n -t 11 -s 2 -S COLOR -c black -o black -i black -I black
n -t 11 -s 3 -S COLOR -c black -o black -i black -I black
n -t 11 -s 4 -S COLOR -c black -o black -i black -I black
n -t 12 -s 5 -S COLOR -c black -o black -i black -I black
n -t 12 -s 0 -S COLOR -c black -o black -i black -I black
n -t 12 -s 1 -S COLOR -c black -o black -i black -I black
n -t 12 -s 2 -S COLOR -c black -o black -i black -I black
n -t 12 -s 3 -S COLOR -c black -o black -i black -I black
n -t 12 -s 4 -S COLOR -c black -o black -i black -I black
n -t 13 -s 5 -S COLOR -c black -o black -i black -I black
n -t 13 -s 0 -S COLOR -c black -o black -i black -I black
n -t 13 -s 1 -S COLOR -c black -o black -i black -I black
n -t 13 -s 2 -S COLOR -c black -o black -i black -I black
n -t 13 -s 3 -S COLOR -c black -o black -i black -I black
n -t 13 -s 4 -S COLOR -c black -o black -i black -I black
n -t 14 -s 5 -S COLOR -c black -o black -i black -I black
n -t 14 -s 0 -S COLOR -c black -o black -i black -I black
n -t 14 -s 1 -S COLOR -c black -o black -i black -I black
n -t 14 -s 2 -S COLOR -c black -o black -i black -I black
n -t 14 -s 3 -S COLOR -c black -o black -i black -I black
n -t 14 -s 4 -S COLOR -c black -o black -i black -I black
n -t 15 -s 5 -S COLOR -c black -o black -i black -I black
n -t 15 -s 0 -S COLOR -c black -o black -i black -I black
n -t 15 -s 1 -S COLOR -c black -o black -i black -I black
n -t 15 -s 2 -S COLOR -c black -o black -i black -I black
n -t 15 -s 3 -S COLOR -c black -o black -i black -I black
n -t 15 -s 4 -S COLOR -c black -o black -i black -I black
n -t 16 -s 5 -S COLOR -c black -o black -i black -I black
n -t 16 -s 0 -S COLOR -c black -o black -i black -I black
n -t 16 -s 1 -S COLOR -c black -o black -i black -I black
n -t 16 -s 2 -S COLOR -c black -o black -i black -I black
n -t 16 -s 3 -S COLOR -c black -o black -i black -I black
n -t 16 -s 4 -S COLOR -c black -o black -i black -I black
n -t 17 -s 5 -S COLOR -c black -o black -i black -I black
n -t 17 -s 0 -S COLOR -c black -o black -i black -I black
n -t 17 -s 1 -S COLOR -c black -o black -i black -I black
n -t 17 -s 2 -S COLOR -c black -o black -i black -I black
n -t 17 -s 3 -S COLOR -c black -o black -i black -I black
n -t 17 -s 4 -S COLOR -c black -o black -i black -I black
n -t 18 -s 5 -S COLOR -c black -o black -i black -I black
n -t 18 -s 0 -S COLOR -c black -o black -i black -I black
n -t 18 -s 1 -S COLOR -c black -o black -i black -I black
n -t 18 -s 2 -S COLOR -c black -o black -i black -I black
n -t 18 -s 3 -S COLOR -c black -o black -i black -I black
n -t 18 -s 4 -S COLOR -c black -o black -i black -I black
n -t 19 -s 5 -S COLOR -c black -o black -i black -I black
n -t 19 -s 0 -S COLOR -c black -o black -i black -I black
n -t 19 -s 1 -S COLOR -c black -o black -i black -I black
n -t 19 -s 2 -S COLOR -c black -o black -i black -I black
n -t 19 -s 3 -S COLOR -c black -o black -i black -I black
n -t 19 -s 4 -S COLOR -c black -o black -i black -I black
n -t 20 -s 5 -S COLOR -c black -o black -i black -I black
n -t 20 -s 0 -S COLOR -c black -o black -i black -I black
n -t 20 -s 1 -S COLOR -c black -o black -i black -I black
n -t 20 -s 2 -S COLOR -c black -o black -i black -I black
n -t 20 -s 3 -S COLOR -c black -o black -i black -I black
n -t 20 -s 4 -S COLOR -c black -o black -i black -I black
n -t 21 -s 5 -S COLOR -c black -o black -i black -I black
n -t 21 -s 0 -S COLOR -c black -o black -i black -I black
n -t 21 -s 1 -S COLOR -c black -o black -i black -I black
n -t 21 -s 2 -S COLOR -c black -o black -i black -I black
n -t 21 -s 3 -S COLOR -c black -o black -i black -I black
n -t 21 -s 4 -S COLOR -c black -o black -i black -I black
n -t 22 -s 5 -S COLOR -c black -o black -i black -I black
n -t 22 -s 0 -S COLOR -c black -o black -i black -I black
n -t 22 -s 1 -S COLOR -c black -o black -i black -I black
n -t 22 -s 2 -S COLOR -c black -o black -i black -I black
n -t 22 -s 3 -S COLOR -c black -o black -i black -I black
n -t 22 -s 4 -S COLOR -c black -o black -i black -I black
n -t 23 -s 5 -S COLOR -c black -o black -i black -I black
n -t 23 -s 0 -S COLOR -c black -o black -i black -I black
n -t 23 -s 1 -S COLOR -c black -o black -i black -I black
n -t 23 -s 2 -S COLOR -c black -o black -i black -I black
n -t 23 -s 3 -S COLOR -c black -o black -i black -I black
n -t 23 -s 4 -S COLOR -c black -o black -i black -I black
n -t 24 -s 5 -S COLOR -c red -o black -i red -I black
n -t 24 -s 0 -S COLOR -c black -o black -i black -I black
n -t 24 -s 1 -S COLOR -c black -o black -i black -I black
n -t 24 -s 2 -S COLOR -c black -o black -i black -I black
n -t 24 -s 3 -S COLOR -c black -o black -i black -I black
n -t 24 -s 4 -S COLOR -c black -o black -i black -I black
n -t 25 -s 5 -S COLOR -c black -o red -i black -I red
n -t 25 -s 0 -S COLOR -c black -o black -i black -I black
n -t 25 -s 1 -S COLOR -c black -o black -i black -I black
n -t 25 -s 2 -S COLOR -c black -o black -i black -I black
n -t 25 -s 3 -S COLOR -c black -o black -i black -I black
n -t 25 -s 4 -S COLOR -c black -o black -i black -I black
n -t 26 -s 5 -S COLOR -c black -o black -i black -I black
n -t 26 -s 0 -S COLOR -c black -o black -i black -I black
n -t 26 -s 1 -S COLOR -c black -o black -i black -I black
n -t 26 -s 2 -S COLOR -c black -o black -i black -I black
n -t 26 -s 3 -S COLOR -c black -o black -i black -I black
n -t 26 -s 4 -S COLOR -c black -o black -i black -I black
n -t 27 -s 5 -S COLOR -c red -o black -i red -I black
n -t 27 -s 0 -S COLOR -c black -o black -i black -I black
n -t 27 -s 1 -S COLOR -c black -o black -i black -I black
n -t 27 -s 2 -S COLOR -c black -o black -i black -I black
n -t 27 -s 3 -S COLOR -c black -o black -i black -I black
n -t 27 -s 4 -S COLOR -c black -o black -i black -I black
n -t 28 -s 5 -S COLOR -c black -o red -i black -I red
n -t 28 -s 0 -S COLOR -c black -o black -i black -I black
n -t 28 -s 1 -S COLOR -c black -o black -i black -I black
n -t 28 -s 2 -S COLOR -c black -o black -i black -I black
n -t 28 -s 3 -S COLOR -c black -o black -i black -I black
n -t 28 -s 4 -S COLOR -c black -o black -i black -I black
n -t 29 -s 5 -S COLOR -c black -o black -i black -I black
n -t 29 -s 0 -S COLOR -c black -o black -i black -I black
n -t 29 -s 1 -S COLOR -c black -o black -i black -I black
n -t 29 -s 2 -S COLOR -c black -o black -i black -I black
n -t 29 -s 3 -S COLOR -c black -o black -i black -I black
n -t 29 -s 4 -S COLOR -c black -o black -i black -I black
n -t 30 -s 5 -S COLOR -c black -o black -i black -I black
n -t 30 -s 0 -S COLOR -c black -o black -i black -I black
n -t 30 -s 1 -S COLOR -c black -o black -i black -I black
n -t 30 -s 2 -S COLOR -c black -o black -i black -I black
n -t 30 -s 3 -S COLOR -c black -o black -i black -I black
n -t 30 -s 4 -S COLOR -c black -o black -i black -I black
n -t 31 -s 5 -S COLOR -c black -o black -i black -I black
n -t 31 -s 0 -S COLOR -c black -o black -i black -I black
n -t 31 -s 1 -S COLOR -c black -o black -i black -I black
n -t 31 -s 2 -S COLOR -c black -o black -i black -I black
n -t 31 -s 3 -S COLOR -c black -o black -i black -I black
n -t 31 -s 4 -S COLOR -c black -o black -i black -I black
n -t 32 -s 5 -S COLOR -c black -o black -i black -I black
n -t 32 -s 0 -S COLOR -c black -o black -i black -I black
n -t 32 -s 1 -S COLOR -c black -o black -i black -I black
n -t 32 -s 2 -S COLOR -c black -o black -i black -I black
n -t 32 -s 3 -S COLOR -c black -o black -i black -I black
n -t 32 -s 4 -S COLOR -c black -o black -i black -I black
n -t 33 -s 5 -S COLOR -c black -o black -i black -I black
n -t 33 -s 0 -S COLOR -c black -o black -i black -I black
n -t 33 -s 1 -S COLOR -c black -o black -i black -I black
n -t 33 -s 2 -S COLOR -c black -o black -i black -I black
n -t 33 -s 3 -S COLOR -c black -o black -i black -I black
n -t 33 -s 4 -S COLOR -c black -o black -i black -I black
n -t 34 -s 5 -S COLOR -c black -o black -i black -I black
n -t 34 -s 0 -S COLOR -c black -o black -i black -I black
n -t 34 -s 1 -S COLOR -c black -o black -i black -I black
n -t 34 -s 2 -S COLOR -c black -o black -i black -I black
n -t 34 -s 3 -S COLOR -c black -o black -i black -I black
n -t 34 -s 4 -S COLOR -c black -o black -i black -I black
n -t 35 -s 5 -S COLOR -c black -o black -i black -I black
n -t 35 -s 0 -S COLOR -c black -o black -i black -I black
n -t 35 -s 1 -S COLOR -c black -o black -i black -I black
n -t 35 -s 2 -S COLOR -c black -o black -i black -I black
n -t 35 -s 3 -S COLOR -c black -o black -i black -I black
n -t 35 -s 4 -S COLOR -c black -o black -i black -I black
n -t 36 -s 5 -S COLOR -c black -o black -i black -I black
n -t 36 -s 0 -S COLOR -c black -o black -i black -I black
n -t 36 -s 1 -S COLOR -c black -o black -i black -I black
n -t 36 -s 2 -S COLOR -c black -o black -i black -I black
n -t 36 -s 3 -S COLOR -c black -o black -i black -I black
n -t 36 -s 4 -S COLOR -c black -o black -i black -I black
n -t 37 -s 5 -S COLOR -c black -o black -i black -I black
n -t 37 -s 0 -S COLOR -c black -o black -i black -I black
n -t 37 -s 1 -S COLOR -c black -o black -i black -I black
n -t 37 -s 2 -S COLOR -c black -o black -i black -I black
n -t 37 -s 3 -S COLOR -c black -o black -i black -I black
n -t 37 -s 4 -S COLOR -c black -o black -i black -I black
n -t 38 -s 5 -S COLOR -c black -o black -i black -I black
n -t 38 -s 0 -S COLOR -c black -o black -i black -I black
n -t 38 -s 1 -S COLOR -c black -o black -i black -I black
n -t 38 -s 2 -S COLOR -c black -o black -i black -I black
n -t 38 -s 3 -S COLOR -c black -o black -i black -I black
n -t 38 -s 4 -S COLOR -c black -o black -i black -I black
n -t 39 -s 5 -S COLOR -c black -o black -i black -I black
n -t 39 -s 0 -S COLOR -c black -o black -i black -I black
n -t 39 -s 1 -S COLOR -c black -o black -i black -I black
n -t 39 -s 2 -S COLOR -c black -o black -i black -I black
n -t 39 -s 3 -S COLOR -c black -o black -i black -I black
n -t 39 -s 4 -S COLOR -c black -o black -i black -I black
n -t 40 -s 5 -S COLOR -c black -o black -i black -I black
n -t 40 -s 0 -S COLOR -c black -o black -i black -I black
n -t 40 -s 1 -S COLOR -c black -o black -i black -I black
n -t 40 -s 2 -S COLOR -c black -o black -i black -I black
n -t 40 -s 3 -S COLOR -c black -o black -i black -I black
n -t 40 -s 4 -S COLOR -c black -o black -i black -I black
n -t 41 -s 5 -S COLOR -c black -o black -i black -I black
n -t 41 -s 0 -S COLOR -c black -o black -i black -I black
n -t 41 -s 1 -S COLOR -c black -o black -i black -I black
n -t 41 -s 2 -S COLOR -c black -o black -i black -I black
n -t 41 -s 3 -S COLOR -c black -o black -i black -I black
n -t 41 -s 4 -S COLOR -c black -o black -i black -I black
n -t 42 -s 5 -S COLOR -c black -o black -i black -I black
n -t 42 -s 0 -S COLOR -c black -o black -i black -I black
n -t 42 -s 1 -S COLOR -c black -o black -i black -I black
n -t 42 -s 2 -S COLOR -c black -o black -i black -I black
n -t 42 -s 3 -S COLOR -c black -o black -i black -I black
n -t 42 -s 4 -S COLOR -c black -o black -i black -I black
n -t 43 -s 5 -S COLOR -c black -o black -i black -I black
n -t 43 -s 0 -S COLOR -c black -o black -i black -I black
n -t 43 -s 1 -S COLOR -c black -o black -i black -I black
n -t 43 -s 2 -S COLOR -c black -o black -i black -I black
n -t 43 -s 3 -S COLOR -c black -o black -i black -I black
n -t 43 -s 4 -S COLOR -c black -o black -i black -I black
n -t 44 -s 5 -S COLOR -c black -o black -i black -I black
n -t 44 -s 0 -S COLOR -c black -o black -i black -I black
n -t 44 -s 1 -S COLOR -c black -o black -i black -I black
n -t 44 -s 2 -S COLOR -c black -o black -i black -I black
n -t 44 -s 3 -S COLOR -c black -o black -i black -I black
n -t 44 -s 4 -S COLOR -c black -o black -i black -I black
n -t 45 -s 5 -S COLOR -c black -o black -i black -I black
n -t 45 -s 0 -S COLOR -c black -o black -i black -I black
n -t 45 -s 1 -S COLOR -c black -o black -i black -I black
n -t 45 -s 2 -S COLOR -c black -o black -i black -I black
n -t 45 -s 3 -S COLOR -c black -o black -i black -I black
n -t 45 -s 4 -S COLOR -c black -o black -i black -I black
n -t 46 -s 5 -S COLOR -c black -o black -i black -I black
n -t 46 -s 0 -S COLOR -c black -o black -i black -I black
n -t 46 -s 1 -S COLOR -c black -o black -i black -I black
n -t 46 -s 2 -S COLOR -c black -o black -i black -I black
n -t 46 -s 3 -S COLOR -c black -o black -i black -I black
n -t 46 -s 4 -S COLOR -c black -o black -i black -I black
n -t 47 -s 5 -S COLOR -c black -o black -i black -I black
n -t 47 -s 0 -S COLOR -c black -o black -i black -I black
n -t 47 -s 1 -S COLOR -c black -o black -i black -I black
n -t 47 -s 2 -S COLOR -c black -o black -i black -I black
n -t 47 -s 3 -S COLOR -c black -o black -i black -I black
n -t 47 -s 4 -S COLOR -c black -o black -i black -I black
n -t 48 -s 5 -S COLOR -c black -o black -i black -I black
n -t 48 -s 0 -S COLOR -c black -o black -i black -I black
n -t 48 -s 1 -S COLOR -c black -o black -i black -I black
n -t 48 -s 2 -S COLOR -c black -o black -i black -I black
n -t 48 -s 3 -S COLOR -c black -o black -i black -I black
n -t 48 -s 4 -S COLOR -c black -o black -i black -I black
n -t 49 -s 5 -S COLOR -c black -o black -i black -I black
n -t 49 -s 0 -S COLOR -c black -o black -i black -I black
n -t 49 -s 1 -S COLOR -c black -o black -i black -I black
n -t 49 -s 2 -S COLOR -c black -o black -i black -I black
n -t 49 -s 3 -S COLOR -c black -o black -i black -I black
n -t 49 -s 4 -S COLOR -c black -o black -i black -I black
n -t 50 -s 5 -S COLOR -c black -o black -i black -I black
n -t 50 -s 0 -S COLOR -c black -o black -i black -I black
n -t 50 -s 1 -S COLOR -c black -o black -i black -I black
n -t 50 -s 2 -S COLOR -c black -o black -i black -I black
n -t 50 -s 3 -S COLOR -c black -o black -i black -I black
n -t 50 -s 4 -S COLOR -c black -o black -i black -I black
n -t 51 -s 5 -S COLOR -c black -o black -i black -I black
n -t 51 -s 0 -S COLOR -c black -o black -i black -I black
n -t 51 -s 1 -S COLOR -c black -o black -i black -I black
n -t 51 -s 2 -S COLOR -c black -o black -i black -I black
n -t 51 -s 3 -S COLOR -c black -o black -i black -I black
n -t 51 -s 4 -S COLOR -c black -o black -i black -I black
n -t 52 -s 5 -S COLOR -c black -o black -i black -I black
n -t 52 -s 0 -S COLOR -c black -o black -i black -I black
n -t 52 -s 1 -S COLOR -c black -o black -i black -I black
n -t 52 -s 2 -S COLOR -c black -o black -i black -I black
n -t 52 -s 3 -S COLOR -c black -o black -i black -I black
n -t 52 -s 4 -S COLOR -c black -o black -i black -I black
n -t 53 -s 5 -S COLOR -c black -o black -i black -I black
n -t 53 -s 0 -S COLOR -c black -o black -i black -I black
n -t 53 -s 1 -S COLOR -c black -o black -i black -I black
n -t 53 -s 2 -S COLOR -c black -o black -i black -I black
n -t 53 -s 3 -S COLOR -c black -o black -i black -I black
n -t 53 -s 4 -S COLOR -c black -o black -i black -I black
n -t 54 -s 5 -S COLOR -c black -o black -i black -I black
n -t 54 -s 0 -S COLOR -c black -o black -i black -I black
n -t 54 -s 1 -S COLOR -c black -o black -i black -I black
n -t 54 -s 2 -S COLOR -c black -o black -i black -I black
n -t 54 -s 3 -S COLOR -c black -o black -i black -I black
n -t 54 -s 4 -S COLOR -c black -o black -i black -I black
n -t 55 -s 5 -S COLOR -c black -o black -i black -I black
n -t 55 -s 0 -S COLOR -c black -o black -i black -I black
n -t 55 -s 1 -S COLOR -c black -o black -i black -I black
n -t 55 -s 2 -S COLOR -c black -o black -i black -I black
n -t 55 -s 3 -S COLOR -c black -o black -i black -I black
n -t 55 -s 4 -S COLOR -c black -o black -i black -I black
n -t 56 -s 5 -S COLOR -c black -o black -i black -I black
n -t 56 -s 0 -S COLOR -c black -o black -i black -I black
n -t 56 -s 1 -S COLOR -c black -o black -i black -I black
n -t 56 -s 2 -S COLOR -c black -o black -i black -I black
n -t 56 -s 3 -S COLOR -c black -o black -i black -I black
n -t 56 -s 4 -S COLOR -c black -o black -i black -I black
n -t 57 -s 5 -S COLOR -c black -o black -i black -I black
n -t 57 -s 0 -S COLOR -c black -o black -i black -I black
n -t 57 -s 1 -S COLOR -c black -o black -i black -I black
n -t 57 -s 2 -S COLOR -c black -o black -i black -I black
n -t 57 -s 3 -S COLOR -c black -o black -i black -I black
n -t 57 -s 4 -S COLOR -c black -o black -i black -I black
n -t 58 -s 5 -S COLOR -c black -o black -i black -I black
n -t 58 -s 0 -S COLOR -c black -o black -i black -I black
n -t 58 -s 1 -S COLOR -c black -o black -i black -I black
n -t 58 -s 2 -S COLOR -c black -o black -i black -I black
n -t 58 -s 3 -S COLOR -c black -o black -i black -I black
n -t 58 -s 4 -S COLOR -c black -o black -i black -I black
n -t 59 -s 5 -S COLOR -c black -o black -i black -I black
n -t 59 -s 0 -S COLOR -c black -o black -i black -I black
n -t 59 -s 1 -S COLOR -c black -o black -i black -I black
n -t 59 -s 2 -S COLOR -c black -o black -i black -I black
n -t 59 -s 3 -S COLOR -c black -o black -i black -I black
n -t 59 -s 4 -S COLOR -c black -o black -i black -I black
n -t 60 -s 5 -S COLOR -c black -o black -i black -I black
n -t 60 -s 0 -S COLOR -c black -o black -i black -I black
n -t 60 -s 1 -S COLOR -c black -o black -i black -I black
n -t 60 -s 2 -S COLOR -c black -o black -i black -I black
n -t 60 -s 3 -S COLOR -c black -o black -i black -I black
n -t 60 -s 4 -S COLOR -c black -o black -i black -I black
n -t 61 -s 5 -S COLOR -c black -o black -i black -I black
n -t 61 -s 0 -S COLOR -c black -o black -i black -I black
n -t 61 -s 1 -S COLOR -c black -o black -i black -I black
n -t 61 -s 2 -S COLOR -c black -o black -i black -I black
n -t 61 -s 3 -S COLOR -c black -o black -i black -I black
n -t 61 -s 4 -S COLOR -c black -o black -i black -I black
n -t 62 -s 5 -S COLOR -c black -o black -i black -I black
n -t 62 -s 0 -S COLOR -c black -o black -i black -I black
n -t 62 -s 1 -S COLOR -c black -o black -i black -I black
n -t 62 -s 2 -S COLOR -c black -o black -i black -I black
n -t 62 -s 3 -S COLOR -c black -o black -i black -I black
n -t 62 -s 4 -S COLOR -c black -o black -i black -I black
n -t 63 -s 5 -S COLOR -c black -o black -i black -I black
n -t 63 -s 0 -S COLOR -c black -o black -i black -I black
n -t 63 -s 1 -S COLOR -c black -o black -i black -I black
n -t 63 -s 2 -S COLOR -c black -o black -i black -I black
n -t 63 -s 3 -S COLOR -c black -o black -i black -I black
n -t 63 -s 4 -S COLOR -c black -o black -i black -I black
n -t 64 -s 5 -S COLOR -c black -o black -i black -I black
n -t 64 -s 0 -S COLOR -c black -o black -i black -I black
n -t 64 -s 1 -S COLOR -c black -o black -i black -I black
n -t 64 -s 2 -S COLOR -c black -o black -i black -I black
n -t 64 -s 3 -S COLOR -c black -o black -i black -I black
n -t 64 -s 4 -S COLOR -c black -o black -i black -I black
n -t 65 -s 5 -S COLOR -c black -o black -i black -I black
n -t 65 -s 0 -S COLOR -c black -o black -i black -I black
n -t 65 -s 1 -S COLOR -c black -o black -i black -I black
n -t 65 -s 2 -S COLOR -c black -o black -i black -I black
n -t 65 -s 3 -S COLOR -c black -o black -i black -I black
n -t 65 -s 4 -S COLOR -c black -o black -i black -I black
n -t 66 -s 5 -S COLOR -c black -o black -i black -I black
n -t 66 -s 0 -S COLOR -c black -o black -i black -I black
n -t 66 -s 1 -S COLOR -c black -o black -i black -I black
n -t 66 -s 2 -S COLOR -c black -o black -i black -I black
n -t 66 -s 3 -S COLOR -c black -o black -i black -I black
n -t 66 -s 4 -S COLOR -c black -o black -i black -I black
n -t 67 -s 5 -S COLOR -c black -o black -i black -I black
n -t 67 -s 0 -S COLOR -c black -o black -i black -I black
n -t 67 -s 1 -S COLOR -c black -o black -i black -I black
n -t 67 -s 2 -S COLOR -c black -o black -i black -I black
n -t 67 -s 3 -S COLOR -c black -o black -i black -I black
n -t 67 -s 4 -S COLOR -c black -o black -i black -I black
n -t 68 -s 5 -S COLOR -c black -o black -i black -I black
n -t 68 -s 0 -S COLOR -c black -o black -i black -I black
n -t 68 -s 1 -S COLOR -c black -o black -i black -I black
n -t 68 -s 2 -S COLOR -c black -o black -i black -I black
n -t 68 -s 3 -S COLOR -c black -o black -i black -I black
n -t 68 -s 4 -S COLOR -c black -o black -i black -I black
n -t 69 -s 5 -S COLOR -c black -o black -i black -I black
n -t 69 -s 0 -S COLOR -c black -o black -i black -I black
n -t 69 -s 1 -S COLOR -c black -o black -i black -I black
n -t 69 -s 2 -S COLOR -c black -o black -i black -I black
n -t 69 -s 3 -S COLOR -c black -o black -i black -I black
n -t 69 -s 4 -S COLOR -c black -o black -i black -I black
n -t 70 -s 5 -S COLOR -c black -o black -i black -I black
n -t 70 -s 0 -S COLOR -c black -o black -i black -I black
n -t 70 -s 1 -S COLOR -c black -o black -i black -I black
n -t 70 -s 2 -S COLOR -c black -o black -i black -I black
n -t 70 -s 3 -S COLOR -c black -o black -i black -I black
n -t 70 -s 4 -S COLOR -c black -o black -i black -I black
n -t 71 -s 5 -S COLOR -c black -o black -i black -I black
n -t 71 -s 0 -S COLOR -c black -o black -i black -I black
n -t 71 -s 1 -S COLOR -c black -o black -i black -I black
n -t 71 -s 2 -S COLOR -c black -o black -i black -I black
n -t 71 -s 3 -S COLOR -c black -o black -i black -I black
n -t 71 -s 4 -S COLOR -c black -o black -i black -I black
n -t 72 -s 5 -S COLOR -c black -o black -i black -I black
n -t 72 -s 0 -S COLOR -c black -o black -i black -I black
n -t 72 -s 1 -S COLOR -c black -o black -i black -I black
n -t 72 -s 2 -S COLOR -c black -o black -i black -I black
n -t 72 -s 3 -S COLOR -c black -o black -i black -I black
n -t 72 -s 4 -S COLOR -c black -o black -i black -I black
n -t 73 -s 5 -S COLOR -c black -o black -i black -I black
n -t 73 -s 0 -S COLOR -c black -o black -i black -I black
n -t 73 -s 1 -S COLOR -c black -o black -i black -I black
n -t 73 -s 2 -S COLOR -c black -o black -i black -I black
n -t 73 -s 3 -S COLOR -c black -o black -i black -I black
n -t 73 -s 4 -S COLOR -c black -o black -i black -I black
n -t 74 -s 5 -S COLOR -c black -o black -i black -I black
n -t 74 -s 0 -S COLOR -c black -o black -i black -I black
n -t 74 -s 1 -S COLOR -c black -o black -i black -I black
n -t 74 -s 2 -S COLOR -c black -o black -i black -I black
n -t 74 -s 3 -S COLOR -c black -o black -i black -I black
n -t 74 -s 4 -S COLOR -c black -o black -i black -I black
n -t 75 -s 5 -S COLOR -c black -o black -i black -I black
n -t 75 -s 0 -S COLOR -c black -o black -i black -I black
n -t 75 -s 1 -S COLOR -c black -o black -i black -I black
n -t 75 -s 2 -S COLOR -c black -o black -i black -I black
n -t 75 -s 3 -S COLOR -c black -o black -i black -I black
n -t 75 -s 4 -S COLOR -c black -o black -i black -I black
n -t 76 -s 5 -S COLOR -c black -o black -i black -I black
n -t 76 -s 0 -S COLOR -c black -o black -i black -I black
n -t 76 -s 1 -S COLOR -c black -o black -i black -I black
n -t 76 -s 2 -S COLOR -c black -o black -i black -I black
n -t 76 -s 3 -S COLOR -c black -o black -i black -I black
n -t 76 -s 4 -S COLOR -c black -o black -i black -I black
n -t 77 -s 5 -S COLOR -c black -o black -i black -I black
n -t 77 -s 0 -S COLOR -c black -o black -i black -I black
n -t 77 -s 1 -S COLOR -c black -o black -i black -I black
n -t 77 -s 2 -S COLOR -c black -o black -i black -I black
n -t 77 -s 3 -S COLOR -c black -o black -i black -I black
n -t 77 -s 4 -S COLOR -c black -o black -i black -I black
n -t 78 -s 5 -S COLOR -c black -o black -i black -I black
n -t 78 -s 0 -S COLOR -c black -o black -i black -I black
n -t 78 -s 1 -S COLOR -c black -o black -i black -I black
n -t 78 -s 2 -S COLOR -c black -o black -i black -I black
n -t 78 -s 3 -S COLOR -c black -o black -i black -I black
n -t 78 -s 4 -S COLOR -c black -o black -i black -I black
n -t 79 -s 5 -S COLOR -c black -o black -i black -I black
n -t 79 -s 0 -S COLOR -c black -o black -i black -I black
n -t 79 -s 1 -S COLOR -c black -o black -i black -I black
n -t 79 -s 2 -S COLOR -c black -o black -i black -I black
n -t 79 -s 3 -S COLOR -c black -o black -i black -I black
n -t 79 -s 4 -S COLOR -c black -o black -i black -I black
n -t 80 -s 5 -S COLOR -c black -o black -i black -I black
n -t 80 -s 0 -S COLOR -c black -o black -i black -I black
n -t 80 -s 1 -S COLOR -c black -o black -i black -I black
n -t 80 -s 2 -S COLOR -c black -o black -i black -I black
n -t 80 -s 3 -S COLOR -c black -o black -i black -I black
n -t 80 -s 4 -S COLOR -c black -o black -i black -I black
n -t 81 -s 5 -S COLOR -c black -o black -i black -I black
n -t 81 -s 0 -S COLOR -c black -o black -i black -I black
n -t 81 -s 1 -S COLOR -c black -o black -i black -I black
n -t 81 -s 2 -S COLOR -c black -o black -i black -I black
n -t 81 -s 3 -S COLOR -c black -o black -i black -I black
n -t 81 -s 4 -S COLOR -c black -o black -i black -I black
n -t 82 -s 5 -S COLOR -c black -o black -i black -I black
n -t 82 -s 0 -S COLOR -c black -o black -i black -I black
n -t 82 -s 1 -S COLOR -c black -o black -i black -I black
n -t 82 -s 2 -S COLOR -c black -o black -i black -I black
n -t 82 -s 3 -S COLOR -c black -o black -i black -I black
n -t 82 -s 4 -S COLOR -c black -o black -i black -I black
n -t 83 -s 5 -S COLOR -c black -o black -i black -I black
n -t 83 -s 0 -S COLOR -c black -o black -i black -I black
n -t 83 -s 1 -S COLOR -c black -o black -i black -I black
n -t 83 -s 2 -S COLOR -c black -o black -i black -I black
n -t 83 -s 3 -S COLOR -c black -o black -i black -I black
n -t 83 -s 4 -S COLOR -c black -o black -i black -I black
n -t 84 -s 5 -S COLOR -c black -o black -i black -I black
n -t 84 -s 0 -S COLOR -c black -o black -i black -I black
n -t 84 -s 1 -S COLOR -c black -o black -i black -I black
n -t 84 -s 2 -S COLOR -c black -o black -i black -I black